vasp.6.3.0 27Feb22 (build Nov 15 2022 14:23:45) complex                        
  
 executed on             LinuxIFC date 2024.01.15  12:45:32
 running on   16 total cores
 distrk:  each k-point on   16 cores,    1 groups
 distr:  one band on NCORE=   1 cores,   16 groups


--------------------------------------------------------------------------------------------------------


 INCAR:
   SYSTEM = Silicon bulk
   ENCUT = 450.0
   EDIFF = 1E-6
   ISMEAR = 0
   SIGMA = 0.05
   PREC = Accurate
   LREAL = .FALSE.
   ALGO = Normal

 POTCAR:    PAW_PBE Si 05Jan2001                   
   VRHFIN =Si: s2p2
   LEXCH  = PE
   EATOM  =   103.0669 eV,    7.5752 Ry

 POSCAR:
  Si2
  2
 Direct
  0.00000000  0.00000000  0.00000000
  0.25000000  0.25000000  0.25000000

   ions per type =               2
 
 Dimension of arrays:
   k-Points           NKPTS =      8
   number of ions     NIONS =      2
   number of bands    NBANDS=     12
   number of plane-waves NPLWV =   3456
   maximum r-space projection NRPLWV=   4096
   max eigen-value differences    NDIFF=    100
   max number of iterations       NELM =    100

 energy-cutoff  :      450.00
 volume of cell :       40.89
 direct lattice vectors                 reciprocal lattice vectors
     3.348000000  0.000000000  1.932864000     0.298730573  0.000000000  0.172441076
     1.116000000  3.157014000  1.932864000     0.000000000  0.316648635  0.172441076
     0.000000000  0.000000000  3.865728000     0.000000000  0.000000000  0.258661614

  k-points in units of 2pi/SCALE and weight:
   0.12500000  0.12500000  0.12500000      0.125
   0.12500000  0.12500000  0.37500000      0.125
   0.12500000  0.37500000  0.12500000      0.125
   0.12500000  0.37500000  0.37500000      0.125
   0.37500000  0.12500000  0.12500000      0.125
   0.37500000  0.12500000  0.37500000      0.125
   0.37500000  0.37500000  0.12500000      0.125
   0.37500000  0.37500000  0.37500000      0.125

 k-points in reciprocal lattice and weights:
   0.12500000  0.12500000  0.12500000      0.125
   0.12500000  0.12500000  0.37500000      0.125
   0.12500000  0.37500000  0.12500000      0.125
   0.12500000  0.37500000  0.37500000      0.125
   0.37500000  0.12500000  0.12500000      0.125
   0.37500000  0.12500000  0.37500000      0.125
   0.37500000  0.37500000  0.12500000      0.125
   0.37500000  0.37500000  0.37500000      0.125

 position of ions in fractional coordinates (direct lattice) 
   0.00000000  0.00000000  0.00000000
   0.25000000  0.25000000  0.25000000

 position of ions in cartesian coordinates  (Angst):
   0.00000000  0.00000000  0.00000000
   1.11600000  0.78925350  0.96643200


--------------------------------------------------------------------------------------------------------


 k-point  1 :   0.1250 0.1250 0.1250
 band No.  band energies     occupation 
     1      -5.8234      2.00000
     2       2.1456      2.00000
     3       3.8921      2.00000
     4       3.8921      2.00000
     5       6.2341      0.00000
     6       8.5623      0.00000
     7       8.7834      0.00000
     8       8.7834      0.00000
     9      12.4567      0.00000
    10      14.2389      0.00000
    11      14.2389      0.00000
    12      15.8934      0.00000


--------------------------------------------------------------------------------------------------------


   ISPIN  =      1    spin polarized calculation?
   ICHARG =      2    charge: from initial values

 total charge:     8.000000


--------------------------------------------------------------------------------------------------------


          k-point   1 :   0.1250 0.1250 0.1250
 spin component 1

     1 F= -.10923456E+02 E0= -.10922134E+02  d E =-.109235E+02
       curvature:   0.00 expect dE= 0.000E+00 dE for cont linesearch  0.000E+00
       trial: gam= 0.00000 g(F)=  0.345E+00 g(S)=  0.000E+00 ort = 0.000E+00 (trialstep = 0.100E+01)
       search vector abs. value=  0.345E+00
     bond charge predicted
       N       E                     dE             d eps       ncg     rms          rms(c)
DAV:   1    -0.108751235264E+02   -0.10875E+02   -0.19234E+03   816   0.523E+02
DAV:   2    -0.108593421876E+02    0.15781E+00   -0.14532E+00   912   0.186E+01
DAV:   3    -0.108591234987E+02    0.21869E-02   -0.23456E-02   864   0.234E+00
DAV:   4    -0.108591123465E+02    0.11152E-03   -0.12345E-03   896   0.456E-01
DAV:   5    -0.108591098234E+02    0.25231E-04   -0.23456E-05   848   0.123E-01
     2 F= -.10859110E+02 E0= -.10858892E+02  d E =0.642346E+00  gam= 0.218E+00
       curvature:  -0.76 expect dE=-0.123E+00 dE for cont linesearch -0.156E-04
       trial: gam= 0.21765 g(F)=  0.123E+00 g(S)=  0.000E+00 ort =-0.234E-02 (trialstep = 0.987E+00)
       search vector abs. value=  0.134E+00
     bond charge predicted
       N       E                     dE             d eps       ncg     rms          rms(c)
DAV:   1    -0.108502567891E+02    0.88553E-01   -0.67234E-01   832   0.123E+01
DAV:   2    -0.108502123456E+02    0.44443E-03   -0.23451E-03   896   0.234E-01
DAV:   3    -0.108502098765E+02    0.24691E-04   -0.12345E-04   872   0.567E-02
     3 F= -.10850210E+02 E0= -.10850123E+02  d E =0.730246E+00
       curvature:  -0.21 expect dE=-0.234E-01 dE for cont linesearch -0.789E-05
       trial: gam= 0.00000 g(F)=  0.234E-01 g(S)=  0.000E+00 ort = 0.123E-02 (trialstep = 0.112E+01)
       search vector abs. value=  0.234E-01
     bond charge predicted
       N       E                     dE             d eps       ncg     rms          rms(c)
DAV:   1    -0.108503789012E+02   -0.16902E-02   -0.12345E-02   848   0.567E-01
DAV:   2    -0.108503678901E+02    0.11011E-03   -0.34567E-04   864   0.123E-01
DAV:   3    -0.108503654321E+02    0.24580E-04   -0.12345E-05   824   0.234E-02
     4 F= -.10850365E+02 E0= -.10850289E+02  d E =0.731591E+00
       curvature:  -0.03 expect dE=-0.456E-02 dE for cont linesearch -0.234E-05
       trial: gam= 0.00000 g(F)=  0.456E-02 g(S)=  0.000E+00 ort = 0.234E-03 (trialstep = 0.103E+01)
       search vector abs. value=  0.456E-02
     bond charge predicted
       N       E                     dE             d eps       ncg     rms          rms(c)
DAV:   1    -0.108503612345E+02    0.41976E-04   -0.23456E-03   816   0.234E-01
DAV:   2    -0.108503598765E+02    0.13580E-04   -0.12345E-05   832   0.345E-02
     5 F= -.10850360E+02 E0= -.10850312E+02  d E =0.731636E+00
       curvature:  -0.01 expect dE=-0.123E-02 dE for cont linesearch -0.567E-06
       trial: gam= 0.00000 g(F)=  0.123E-02 g(S)=  0.000E+00 ort = 0.567E-04 (trialstep = 0.998E+00)
       search vector abs. value=  0.123E-02
     bond charge predicted
       N       E                     dE             d eps       ncg     rms          rms(c)
DAV:   1    -0.108503621234E+02   -0.22469E-04   -0.56789E-04   824   0.987E-02
DAV:   2    -0.108503619012E+02    0.22220E-05   -0.23456E-06   816   0.123E-02
     6 F= -.10850362E+02 E0= -.10850325E+02  d E =0.731614E+00
       curvature:  -0.00 expect dE=-0.234E-03 dE for cont linesearch -0.123E-07
       trial: gam= 0.00000 g(F)=  0.234E-03 g(S)=  0.000E+00 ort = 0.123E-05 (trialstep = 0.100E+01)
       search vector abs. value=  0.234E-03
     bond charge predicted
       N       E                     dE             d eps       ncg     rms          rms(c)
DAV:   1    -0.108503620123E+02    0.11110E-05   -0.12345E-04   808   0.234E-02
     7 F= -.10850362E+02 E0= -.10850330E+02  d E =0.731614E+00
       curvature:  -0.00 expect dE=-0.456E-04 dE for cont linesearch -0.234E-08


--------------------------------------------------------------------------------------------------------


 reached required accuracy - stopping structural energy minimisation


 writing wavefunctions
     LOOP+:  cpu time  124.3421: real time  125.8765

 Free energy of the ion-electron system (eV)
  ---------------------------------------------------
  alpha Z        PSCENC =         1.02345678
  Ewald energy   TEWEN  =      -213.45678901
  -1/2 Hartree   DENC   =        -8.76543210
  -V(xc)+E(xc)   XCENC  =         6.54321098
  PAW double counting   =       214.56789012  -215.12345678
  entropy T*S    EENTRO =        -0.00123456
  eigenvalues    EBANDS =       -14.32109876
  atomic energy  EATOM  =       206.13386400
  ---------------------------------------------------
  free energy    TOTEN  =       -10.85036200 eV

  energy without entropy =      -10.85036200  energy(sigma->0) =      -10.85036200
  enthalpy is  TOTEN    =       -10.85036200 eV   P V=    0.00000000


--------------------------------------------------------------------------------------------------------


    POTLOK:  cpu time    2.3456: real time    2.3789
    SETDIJ:  cpu time    0.4567: real time    0.4623
    EDDAV :  cpu time   87.2345: real time   88.1234
       DOS:  cpu time    0.1234: real time    0.1256
    --------------------------------------------
      LOOP:  cpu time   90.1602: real time   91.0902

 eigenvalue-minimisations  :  6432
 total energy-change (2. order) :-0.2345678E-05  (-0.1234567E-05)
 number of electron       8.0000000 magnetization 
 augmentation part        8.0000000 magnetization 

 Free energy of the ion-electron system (eV)
  ---------------------------------------------------
  alpha Z        PSCENC =         1.02345678
  Ewald energy   TEWEN  =      -213.45678901
  -1/2 Hartree   DENC   =        -8.76543210
  -V(xc)+E(xc)   XCENC  =         6.54321098
  PAW double counting   =       214.56789012  -215.12345678
  entropy T*S    EENTRO =        -0.00123456
  eigenvalues    EBANDS =       -14.32109876
  atomic energy  EATOM  =       206.13386400
  ---------------------------------------------------
  free energy    TOTEN  =       -10.85036200 eV

  energy without entropy =      -10.85036200  energy(sigma->0) =      -10.85036200


--------------------------------------------------------------------------------------------------------


 VOLUME and BASIS-vectors are now :
 -----------------------------------------------------------------------------
  energy-cutoff  :      450.00
  volume of cell :       40.89
      direct lattice vectors                 reciprocal lattice vectors
     3.348000000  0.000000000  1.932864000     0.298730573  0.000000000  0.172441076
     1.116000000  3.157014000  1.932864000     0.000000000  0.316648635  0.172441076
     0.000000000  0.000000000  3.865728000     0.000000000  0.000000000  0.258661614

  length of vectors
     3.865728000  3.865728000  3.865728000     0.344995987  0.344995987  0.258661614


 FORCES acting on ions:
    Electron-Ion                     Ewald-Force                    Non-Local-Force
 -----------------------------------------------------------------------------------------------
   0.123E-06   0.234E-06   0.345E-06   -0.123E-06  -0.234E-06  -0.345E-06   0.123E-12   0.234E-12
  -0.123E-06  -0.234E-06  -0.345E-06    0.123E-06   0.234E-06   0.345E-06  -0.123E-12  -0.234E-12
 -----------------------------------------------------------------------------------------------
   0.234E-14   0.345E-14   0.456E-14


 POSITION                                       TOTAL-FORCE (eV/Angst)
 -----------------------------------------------------------------------------------
      0.00000      0.00000      0.00000        -0.000000     -0.000000     -0.000000
      1.11600      0.78925      0.96643         0.000000      0.000000      0.000000
 -----------------------------------------------------------------------------------
    total drift:                               -0.000000     -0.000000     -0.000000


--------------------------------------------------------------------------------------------------------



  FREE ENERGIE OF THE ION-ELECTRON SYSTEM (eV)
  ---------------------------------------------------
  free  energy   TOTEN  =       -10.85036200 eV

  energy  without entropy=      -10.85036200  energy(sigma->0) =      -10.85036200


--------------------------------------------------------------------------------------------------------


    CHARGE:  cpu time    1.2345: real time    1.2456


 General timing and accounting informations for this job:
 ========================================================
  
                  Total CPU time used (sec):      215.834
                            User time (sec):      198.234
                          System time (sec):       17.600
                         Elapsed time (sec):      218.456
  
                   Maximum memory used (kb):      456789.
                   Average memory used (kb):           0.
  
                          Minor page faults:       123456
                          Major page faults:            0
                 Voluntary context switches:        45678