vasp.5.4.4.18Apr17-6-g9f103f2a35 (build Nov 02 2017 16:44:18) complex
  
 executed on LinuxIFC date 2023.11.15  09:23:45
 running on   16 total cores
 distrk:  each k-point on   16 cores,    1 groups
 distr:  one band on NCORES_PER_BAND=   4 cores,    4 groups


--------------------------------------------------------------------------------------------------------


 INCAR:
 POTCAR:    PAW_PBE Si 05Jan2001                   
 POTCAR:    PAW_PBE Si 05Jan2001                   
   VRHFIN =Si: s2p2
   LEXCH  = PE
   EATOM  =   103.0669 eV,    7.5752 Ry

 POSCAR:  Si2
  positions in direct lattice
  velocities in cartesian coordinates
  exchange correlation table for  LEXCH =        8
   RHO(1)=    0.500       N(1)  =     2000
   RHO(2)=  100.500       N(2)  =     4000


 ions per type =               2
 atomic mass                26.98200
 valence charge             4.00000
 mass and valenz            4.00000
 k-points in units of 2pi/ANGSTROM
   0.00000000  0.00000000  0.00000000       1.000
   0.12500000  0.00000000  0.00000000       8.000
   0.25000000  0.00000000  0.00000000       8.000
   0.37500000  0.00000000  0.00000000       8.000
   0.12500000  0.12500000  0.00000000       6.000
   0.25000000  0.12500000  0.00000000      24.000
   0.37500000  0.12500000  0.00000000      24.000
  -0.50000000  0.12500000  0.00000000      12.000
   0.25000000  0.25000000  0.00000000       6.000
   0.37500000  0.25000000  0.00000000      24.000
  -0.50000000  0.25000000  0.00000000      12.000

 k-points in reciprocal lattice and weights: Automatic mesh                      
   0.00000000  0.00000000  0.00000000       0.010
   0.12500000  0.00000000  0.00000000       0.080
   0.25000000  0.00000000  0.00000000       0.080
   0.37500000  0.00000000  0.00000000       0.080
   0.12500000  0.12500000  0.00000000       0.060
   0.25000000  0.12500000  0.00000000       0.240
   0.37500000  0.12500000  0.00000000       0.240
  -0.50000000  0.12500000  0.00000000       0.120
   0.25000000  0.25000000  0.00000000       0.060
   0.37500000  0.25000000  0.00000000       0.240

 position of ions in fractional coordinates (direct lattice) 
   0.00000000  0.00000000  0.00000000
   0.25000000  0.25000000  0.25000000

 VOLUME and BASIS-vectors are now :
 -----------------------------------------------------------------------------
  energy-cutoff  :      200.00
  volume of cell :       40.04
      direct lattice vectors                 reciprocal lattice vectors
     3.840000000  0.000000000  0.000000000     0.260416667  0.260416667  0.000000000
     0.000000000  3.840000000  0.000000000     0.260416667  0.000000000  0.260416667
     0.000000000  0.000000000  3.840000000     0.000000000  0.260416667  0.260416667

  length of vectors
     3.840000000  3.840000000  3.840000000     0.368285106  0.368285106  0.368285106


 FORCES acting on ions
    electron-ion (+dipol)            ewald-force                    non-local-force                 convergence-correction
 -----------------------------------------------------------------------------------------------
   -.124E-13 -.241E-13 -.217E-13   0.000E+00 0.000E+00 0.000E+00   0.000E+00 0.000E+00 0.000E+00   -.158E-14 -.180E-14 -.164E-14
   0.124E-13 0.241E-13 0.217E-13   0.000E+00 0.000E+00 0.000E+00   0.000E+00 0.000E+00 0.000E+00   0.158E-14 0.180E-14 0.164E-14
 -----------------------------------------------------------------------------------------------
   -.888E-15 0.000E+00 0.000E+00   0.000E+00 0.000E+00 0.000E+00   0.000E+00 0.000E+00 0.000E+00   0.000E+00 0.000E+00 0.000E+00
 
 
 POSITION                                       TOTAL-FORCE (eV/Angst)
 -----------------------------------------------------------------------------------
      0.00000      0.00000      0.00000         0.000000      0.000000      0.000000
      0.96000      0.96000      0.96000         0.000000      0.000000      0.000000
 -----------------------------------------------------------------------------------
    total drift:                                0.000000      0.000000      0.000000


--------------------------------------------------------------------------------------------------------


 FREE ENERGIE OF THE ION-ELECTRON SYSTEM (eV)
  ---------------------------------------------------
  free  energy   TOTEN  =       -10.75423100 eV

  energy  without entropy=      -10.75423100  energy(sigma->0) =      -10.75423100


--------------------------------------------------------------------------------------------------------


    CHARGE:  cpu time    0.2145: real time    0.2156
    FORLOC:  cpu time    0.0342: real time    0.0343
    FORNL :  cpu time    0.1235: real time    0.1240
    STRESS:  cpu time    0.4523: real time    0.4548
    FORHAR:  cpu time    0.0523: real time    0.0525
    MIXING:  cpu time    0.0234: real time    0.0235
    OFIELD:  cpu time    0.0000: real time    0.0000

  FORCE on cell =-STRESS in cart. coord.  units (eV):
  Direction    XX          YY          ZZ          XY          YZ          ZX
  --------------------------------------------------------------------------------------
  Alpha Z      8.00000     8.00000     8.00000
  Ewald        4.62345     4.62345     4.62345     0.00000     0.00000     0.00000
  Hartree      2.84523     2.84523     2.84523     0.00000     0.00000     0.00000
  E(xc)       -5.23456    -5.23456    -5.23456     0.00000     0.00000     0.00000
  Local       -8.95234    -8.95234    -8.95234     0.00000     0.00000     0.00000
  n-local     -1.34562    -1.34562    -1.34562     0.00000     0.00000     0.00000
  augment      0.12345     0.12345     0.12345     0.00000     0.00000     0.00000
  Kinetic      0.23456     0.23456     0.23456     0.00000     0.00000     0.00000
  Fock         0.00000     0.00000     0.00000     0.00000     0.00000     0.00000
  -------------------------------------------------------------------------------------
  Total        0.29417     0.29417     0.29417     0.00000     0.00000     0.00000
  in kB        0.43869     0.43869     0.43869     0.00000     0.00000     0.00000
  external pressure =        0.44 kB    Pullay stress =        0.00 kB


 VOLUME and BASIS-vectors are now :
 -----------------------------------------------------------------------------
  energy-cutoff  :      200.00
  volume of cell :       40.04
      direct lattice vectors                 reciprocal lattice vectors
     3.840000000  0.000000000  0.000000000     0.260416667  0.260416667  0.000000000
     0.000000000  3.840000000  0.000000000     0.260416667  0.000000000  0.260416667
     0.000000000  0.000000000  3.840000000     0.000000000  0.260416667  0.260416667

  length of vectors
     3.840000000  3.840000000  3.840000000     0.368285106  0.368285106  0.368285106

 
 DIAGNOSTICS: cpu time    3.2145: real time    3.2345
 
 total amount of memory used by VASP on root node    45234. kBytes
========================================================================

   base      :      30000. kBytes
   nonl-proj :       2345. kBytes
   fftplans  :       1234. kBytes
   grid      :       5432. kBytes
   one-center:         12. kBytes
   wavefun   :       6211. kBytes
 
  
  
 General timing and accounting informations for this job:
 ========================================================
  
                  Total CPU time used (sec):        3.456
                            User time (sec):        3.123
                          System time (sec):        0.333
                         Elapsed time (sec):        3.512
  
                   Maximum memory used (kb):       45234.
                   Average memory used (kb):           0.
  
                          Minor page faults:         8234
                          Major page faults:            0
                 Voluntary context switches:         1234