GPAW version 22.8.0
Python 3.9.7 | packaged by conda-forge

User:   researcher@chem-server
Date:   Mon Nov 14 10:23:45 2022
Arch:   x86_64
Pid:    45821
Python: 3.9.7
GPAW:   /opt/conda/lib/python3.9/site-packages/gpaw

Water molecule - H2O
Grid spacing: 0.25 Å
h = 0.25

System information:
  Symbols:     H2O
  Unit cell:   [8.0, 8.0, 8.0] Ang
  Grid points: [32, 32, 32]

XC functional: PBE
Convergence criteria:
  Energy:      1.0e-06 eV
  Density:     1.0e-04 electrons

Parallelization:
  Bands:       1
  K-points:    1
  Domains:     1

Number of atoms: 3
Number of atomic orbitals: 13
Number of bands: 8
Number of valence electrons: 8

Positions:
  O     4.000000    4.000000    4.000000
  H     4.757000    4.000000    4.586000
  H     3.243000    4.000000    4.586000

Initialize wave functions:
  8 bands
  Random wave functions

========================= Starting SCF iterations =========================

          Total Energy      Eigenvalue Sum      Fermi Level
iter:   1   -17.185432 eV      -8.234156 eV        -2.845 eV
iter:   2   -17.124567 eV      -8.456823 eV        -2.921 eV
iter:   3   -17.082341 eV      -8.612445 eV        -3.012 eV
iter:   4   -17.068923 eV      -8.698234 eV        -3.067 eV
iter:   5   -17.064156 eV      -8.734567 eV        -3.092 eV
iter:   6   -17.062784 eV      -8.751223 eV        -3.103 eV
iter:   7   -17.062345 eV      -8.758934 eV        -3.108 eV
iter:   8   -17.062189 eV      -8.762145 eV        -3.110 eV
iter:   9   -17.062156 eV      -8.763456 eV        -3.111 eV
iter:  10   -17.062148 eV      -8.763889 eV        -3.112 eV
iter:  11   -17.062146 eV      -8.764023 eV        -3.112 eV
iter:  12   -17.062145 eV      -8.764078 eV        -3.112 eV

========================= Convergence achieved =========================

Final eigenvalues (eV):
  Band  Eigenvalue  Occupation
     0   -24.5634      2.0000
     1   -12.3421      2.0000
     2    -9.1234      2.0000
     3    -7.0156      2.0000
     4     1.2345      0.0000
     5     2.3456      0.0000
     6     3.4567      0.0000
     7     4.5678      0.0000

Energy contributions:
  Kinetic:              17.234567 eV
  Potential:           -42.156789 eV
  External:             -8.234567 eV
  XC:                   -5.678901 eV
  Entropy:              -0.000234 eV
  Local:                21.773779 eV

Total Energy:            -17.062145 eV
Extrapolated to T=0:     -17.062028 eV

Forces (eV/Ang):
  O     0.002341   -0.000123    0.001456
  H    -0.001234    0.000234   -0.000987
  H    -0.001107   -0.000111   -0.000469

Dipole moment (Debye):
  X:    0.0001   Y:    0.0003   Z:    1.8542   Total:    1.8542

Magnetic moment:  0.000000

Total magnetic moment: (0.000000, 0.000000, 0.000000)

Memory usage estimation:
  Process memory:        421.34 MiB
  Calculator:            12.45 MiB
    Density:             3.21 MiB
    Hamiltonian:         2.87 MiB
    Wave functions:      6.37 MiB

Timing information:
                          CPU time    Wall time
  Initialize:              5.23 s       5.31 s
  Hamiltonian:             2.14 s       2.17 s
  Density:                 8.45 s       8.52 s
  SCF iterations:         49.87 s      50.23 s
  Forces:                  2.34 s       2.36 s
  Finalize:                0.23 s       0.23 s
  Total:                  68.26 s      68.82 s

Wall time:               68.92 s

Calculation completed successfully.
Date: Mon Nov 14 10:24:54 2022