GPAW version 22.8.0 (MPI enabled)
User: researcher@computational-chem-lab
Date: Mon Dec 18 14:32:18 2023
Arch: x86_64
Python: 3.9.7
gpaw: /opt/gpaw/lib/python3.9/site-packages/gpaw
_gpaw: /opt/gpaw/lib/python3.9/site-packages/_gpaw.so
ase: /opt/ase/lib/python3.9/site-packages/ase (version 3.22.1)
numpy: /usr/lib64/python3.9/site-packages/numpy (version 1.21.4)
scipy: /usr/lib64/python3.9/site-packages/scipy (version 1.7.3)
libxc: 5.2.3
units: Angstrom and eV
cores: 8
OpenMP: False

Input parameters:
  mode: {name: fd,
         h: 0.20}
  xc: PBE
  occupations: {name: fermi-dirac,
                width: 0.05}
  convergence: {energy: 0.0005}
  eigensolver: {name: dav,
                niter: 3}
  mixer: {backend: pulay,
          beta: 0.05,
          method: separate,
          nmaxold: 5,
          weight: 50.0}
  setups: {}
  symmetry: {point_group: False,
             time_reversal: True}

System: H2O molecule
  Lattice vectors:
    10.00000  0.00000  0.00000
    0.00000  10.00000  0.00000
    0.00000  0.00000  10.00000
  Positions:
    O  5.00000  5.00000  5.00000
    H  5.76340  5.00000  4.59230
    H  4.23660  5.00000  4.59230

Grid spacing: 0.20 Å
Number of grid points: [50, 50, 50]
Volume: 1000.00 Ang^3

Spin-paired calculation

Convergence criteria:
  Total energy change: 5.0e-04 eV / electron
  
Initializing position-dependent things

Creating initial wave functions:
  8 bands from LCAO basis set

Density initialized from atomic densities
Mixer initialized with 5 old densities

Initialization complete. Starting SCF iterations...

                     log10-error:    total        iterations:
           time      wfs    density  energy       fermi  poisson
iter:   1  14:32:22  +1.68   +inf   -17.198654    0      9
iter:   2  14:32:28  +0.84  -0.68   -17.136892    0      8
iter:   3  14:32:35  +0.35  -0.82   -17.091234    0      8
iter:   4  14:32:41  -0.12  -1.15   -17.079456    0      7
iter:   5  14:32:47  -0.58  -1.38   -17.074123    0      7
iter:   6  14:32:53  -1.15  -1.67   -17.071892    0      7
iter:   7  14:32:59  -1.68  -1.89   -17.070945    0      6
iter:   8  14:33:05  -2.23  -2.18   -17.070512    0      6
iter:   9  14:33:10  -2.79  -2.45   -17.070334    0      6
iter:  10  14:33:16  -3.34  -2.73   -17.070245    0      5
iter:  11  14:33:21  -3.87  -3.04   -17.070198    0      5
iter:  12  14:33:26  -4.42  -3.35   -17.070178    0      5
iter:  13  14:33:31  -4.95  -3.68   -17.070169    0      4
iter:  14  14:33:36  -5.48  -4.02   -17.070165    0      4

Converged after 14 iterations.

Energy contributions relative to reference atoms:
-------------------------
Kinetic:        +18.234567
Potential:      -29.876543
External:        -5.428189
XC:              -0.000000
Entropy (-ST):   -0.000000
Local:           +0.000000
-------------------------
Total Energy:            -17.070165 eV
Free Energy:             -17.070165 eV
Extrapolated to T=0:     -17.070165 eV

Fermi level: -3.45678 eV

Eigenstates energies:
Band    Energy [eV]
   0     -18.9234
   1      -7.2341
   2      -5.1234
   3      -4.8901
   4       1.2345
   5       2.3456
   6       3.4567
   7       4.5678

Forces in eV/Ang:
  0 O     0.00123   -0.00045    0.08234
  1 H    -0.02345    0.00234   -0.04123
  2 H     0.02222   -0.00189   -0.04111

Dipole moment: (0.00234, -0.00123, 0.78945) eV*Ang
Total dipole moment: 0.78946 eV*Ang

Magnetic moment: 0.00000

Total charge: 0.00000

Memory usage: 1.23 GB
Date: Mon Dec 18 14:33:36 2023

Timing:                              incl.     excl.
-----------------------------------------------------------
Forces:                              2.341     2.341   2.6%
Hamiltonian:                         4.567     0.123   5.1%
 Atomic:                             1.234     1.234   1.4%
 XC:                                 2.890     2.890   3.2%
 Poisson:                            0.234     0.234   0.3%
 Communicate:                        0.086     0.086   0.1%
SCF-cycle:                          78.234    12.345  87.6%
 Density:                            8.901     8.901   9.9%
 Eigensolver:                       45.678    45.678  51.1%
 Mixer:                              4.567     4.567   5.1%
 Subspace diag:                      6.743     6.743   7.5%
Other:                               4.321     4.321   4.8%
-----------------------------------------------------------
Wall time:               89.46 s
Total:                               89.463    89.463 100.0%

Date: Mon Dec 18 14:33:36 2023
GPAW calculation completed successfully