vasp.5.4.4.18Apr17-6-g9f103f2a35 (build Aug 24 2017 11:33:49) complex
 
 executed on LinuxIFC date 2024.01.15  09:23:45
 running on   16 total cores
 distrk:  each k-point on   16 cores,    1 groups
 distr:  one band on NCORES_PER_BAND=   4 cores,    4 groups


--------------------------------------------------------------------------------------------------------


 INCAR:
 POTCAR:    PAW_PBE Si 05Jan2001                   
 POTCAR:    PAW_PBE Si 05Jan2001                   
   VRHFIN =Si: s2p2                                                              
   LEXCH  = PE                                                                   
   EATOM  =   103.0669 eV,    7.5752 Ry                                         
                                                                                 
   TITEL  = PAW_PBE Si 05Jan2001                                                
   LULTRA =        F    use ultrasoft PP ?                                      
   IUNSCR =        1    unscreen: 0-lin 1-nonlin 2-no                           
   RPACOR =    1.500    partial core radius                                     
   POMASS =   28.085; ZVAL   =    4.000    mass and valenz                      
   RCORE  =    1.900    outmost cutoff radius                                   
   RWIGS  =    2.480; RWIGS  =    1.312    wigner-seitz radius (au A)           
   ENMAX  =  245.345; ENMIN  =  184.009 eV                                      
   ICORE  =        2    local potential                                         
   LCOR   =        T    correct aug charges                                     
   LPAW   =        T    paw PP                                                  
   EAUG   =  322.069                                                            
   DEXC   =    0.000                                                            
   RMAX   =    1.950    core radius for proj of wfct                            
   RAUG   =    1.300    factor for augmentation sphere                          
   RDEP   =    1.993    radius for radial grids                                 
   RDEPT  =    1.837    core radius for aug mesh                                
                                                                                 
   Atomic configuration                                                         
    4 entries                                                                   
     n  l   j            E        occ.                                          
     1  0  0.50     -1785.8828   2.0000                                         
     2  0  0.50      -139.4969   2.0000                                         
     2  1  1.50       -95.5546   6.0000                                         
     3  0  0.50       -10.8127   2.0000                                         
   Description                                                                  
     l       E           TYP  RCUT    TYP  RCUT                                 
     0    -10.8127288     23  1.900                                             
     0     -1.0000000     23  1.900                                             
     1     -1.0000000     23  1.900                                             
     2     -1.0000000      7  1.900                                             
  local pseudopotential read in
  partial core-charges read in
  partial kinetic energy density read in
  atomic valenz-charges read in
  non local Contribution for L=           0  read in
    real space projection operators read in
  non local Contribution for L=           0  read in
    real space projection operators read in
  non local Contribution for L=           1  read in
    real space projection operators read in
  non local Contribution for L=           2  read in
    real space projection operators read in
    PAW grid and wavefunctions read in
 
   number of l-projection  operators is LMAX  =           4
   number of lm-projection operators is LMMAX =           8
 

 ----------------------------------------------------------------------------- 
|                                                                             |
|           W    W    AA    RRRRR   N    N  II  N    N   GGGG   !!!           |
|           W    W   A  A   R    R  NN   N  II  NN   N  G    G  !!!           |
|           W    W  A    A  R    R  N N  N  II  N N  N  G       !!!           |
|           W WW W  AAAAAA  RRRRR   N  N N  II  N  N N  G  GGG   !            |
|           WW  WW  A    A  R   R   N   NN  II  N   NN  G    G                |
|           W    W  A    A  R    R  N    N  II  N    N   GGGG   !!!           |
|                                                                             |
|      For optimal performance we recommend to set                            |
|        NCORE= 4 - approx SQRT( number of cores)                             |
|      NCORE specifies how many cores store one orbital (NPAR=cpu/NCORE).     |
|      This setting can  greatly improve the performance of VASP for DFT.     |
|      The default,   NCORE=1            might be grossly inefficient         |
|      on modern multi-core architectures or massively parallel machines.     |
|      Do your own testing !!!!                                               |
|      Unfortunately you need to use the default for GW and RPA calculations. |
|      (for HF NCORE is supported but not extensively tested yet)             |
|                                                                             |
 ----------------------------------------------------------------------------- 

 
 SYSTEM =  Si2
 POSCAR =  Si2

 Startparameter for this run:
   NWRITE =      2    write-flag & timer
   PREC   = accura    normal or accurate (medium, high low for compatibility)
   ISTART =      0    job   : 0-new  1-cont  2-samecut
   ICHARG =      2    charge: 1-file 2-atom 10-const
   ISPIN  =      1    spin polarized calculation?
   LNONCOLLINEAR =      F non collinear calculations
   LSORBIT =      F    spin-orbit coupling
   INIWAV =      1    electr: 0-lowe 1-rand  2-diag
   LASPH  =      T    aspherical Exc in radial PAW
   METAGGA=      F    non-selfconsistent MetaGGA calc.

 Electronic Relaxation 1
   ENCUT  =  300.0 eV  22.05 Ry    4.70 a.u.  11.61 11.61 11.61*2*pi/ulx,y,z
   ENINI  =  300.0     initial cutoff
   ENAUG  =  322.1 eV  augmentation charge cutoff
   NELM   =     60;   NELMIN=  2; NELMDL= -5     # of ELM steps 
   EDIFF  = 0.1E-05   stopping-criterion for ELM
   LREAL  =      F    real-space projection
   NLSPLINE    = F    spline interpolate recip. space projectors
   LCOMPAT=      F    compatible to vasp.4.4
   GGA_COMPAT  = T    GGA compatible to vasp.4.4-vasp.4.6
   LMAXPAW     = -100 max onsite density
   LMAXMIX     =    2 max onsite mixed and CHGCAR
   VOSKOWN=      0    Vosko Wilk Nusair interpolation
   ROPT   =    0.00000   0.00000
 Ionic relaxation
   EDIFFG = 0.1E-04   stopping-criterion for IOM
   NSW    =      0    number of steps for IOM
   NBLOCK =      1;   KBLOCK =      1    inner block; outer block 
   IBRION =     -1    ionic relax: 0-MD 1-quasi-New 2-CG
   NFREE  =      0    steps in history (QN), initial steepest desc. (CG)
   ISIF   =      2    stress and relaxation
   IWAVPR =     10    prediction:  0-non 1-charg 2-wave 3-comb
   ISYM   =      2    0-nonsym 1-usesym 2-fastsym
   LCORR  =      T    Harris-Foulkes like correction to forces

   POTIM  = 0.5000    time-step for ionic-motion
   TEIN   =    0.0    initial temperature
   TEBEG  =    0.0;   TEEND  =   0.0 temperature during run
   SMASS  =  -3.00    Nose mass-parameter (am)
   estimated Nose-frequenzy (Omega)   =  0.10E-29 period in steps =****** mass=  -0.280E-25a.u.
   SCALEE = 1.0000    scale energy and forces
   NPACO  =    256;   APACO  = 16.0  distance and # of slots for P.C.
   PSTRESS=    0.0 pullay stress

  Mass of Ions in am
   POMASS =  28.09
  Ionic Valenz
   ZVAL   =   4.00
  Atomic Wigner-Seitz radii
   RWIGS  =  -1.00
  virtual crystal weights 
   VCA    =   1.00   1.00
   NELECT =       8.0000    total number of electrons
   NUPDOWN=      -1.0000    fix difference up-down

 DOS related values:
   EMIN   =  10.00;   EMAX   =-10.00  energy-range for DOS
   EFERMI =   0.00
   ISMEAR =     0;   SIGMA  =   0.05  broadening in eV -4-tet -1-fermi 0-gaus

 Electronic relaxation 2 (details)
   IALGO  =     38    algorithm
   LDIAG  =      T    sub-space diagonalisation (order eigenvalues)
   LSUBROT=      F    optimize rotation matrix (better conditioning)
   TURBO    =      0    0=normal 1=particle mesh
   IRESTART =      0    0=no restart 2=restart with 2 vectors
   NREBOOT  =      0    no. of reboots
   NMIN     =      0    reboot dimension
   EREF     =   0.00    reference energy to select bands
   IMIX   =      4    mixing-type and parameters
     AMIX     =   0.40;   BMIX     =  1.00
     AMIX_MAG =   1.60;   BMIX_MAG =  1.00
     AMIN     =   0.10
     WC   =   100.;   INIMIX=   1;  MIXPRE=   1;  MAXMIX= -45

 Intra band minimization:
   WEIMIN = 0.0000     energy-eigenvalue tresh-hold
   EBREAK =  0.21E-08  absolut break condition
   DEPER  =   0.30     relativ break condition  

   TIME   =   0.40     timestep for ELM

  volume/ion in A,a.u.               =      20.00       134.95
  Fermi-wavevector in a.u.,A,eV,Ry     =   0.849094  1.604481 10.049814  0.738633
  Thomas-Fermi vector in A             =   1.736313
 
 Write flags
   LWAVE  =      F    write WAVECAR
   LCHARG =      F    write CHGCAR
   LVTOT  =      F    write LOCPOT, total local potential
   LVHAR  =      F    write LOCPOT, Hartree potential only
   LELF   =      F    write electronic localiz. function (ELF)
   LORBIT =      0    0 simple, 1 ext, 2 COOP (PROOUT)


 Dipole corrections
   LMONO  =      F    monopole corrections only (constant potential shift)
   LDIPOL =      F    correct potential (dipole corrections)
   IDIPOL =      0    1-x, 2-y, 3-z, 4-all directions 
   EPSILON=  1.0000000 bulk dielectric constant

 Exchange correlation treatment:
   GGA     =    --    GGA type
   LEXCH   =     8    internal setting for exchange type
   VOSKOWN=      0    Vosko Wilk Nusair interpolation
   LHFCALC =     F    Hartree Fock is set to
   LHFONE  =     F    Hartree Fock one center treatment
   AEXX    =    0.0000 exact exchange contribution

 Linear response parameters
   LEPSILON=     F    determine dielectric tensor
   LRPA    =     F    only Hartree local field effects (RPA)
   LNABLA  =     F    use nabla operator in PAW spheres
   LVEL    =     F    velocity operator in full k-point grid
   LINTERFAST=   F  fast interpolation
   KINTER  =     0    interpolate to denser k-point grid
   CSHIFT  =0.1000    complex shift for real part using Kramers Kronig
   OMEGAMAX=  -1.0    maximum frequency
   DEG_THRESHOLD= 0.2000000E-02 threshold for treating states as degnerate
   RTIME   =    0.100 relaxation time in fs

 Orbital magnetization related:
   ORBITALMAG=     F  switch on orbital magnetization
   LCHIMAG   =     F  perturbation theory with respect to B field
   DQ        =  0.001000  dq finite difference perturbation B field



--------------------------------------------------------------------------------------------------------


 Static calculation
 charge density and potential will be updated during run
 non-spin polarized calculation
 Variant of blocked Davidson
 Davidson routine will perform the subspace rotation
 perform sub-space diagonalisation
    after iterative eigenvector-optimisation
 modified Broyden-mixing scheme, WC =      100.0
 initial mixing is a Kerker type mixing with AMIX =  0.4000 and BMIX =      1.0000
 Hartree-type preconditioning will be used
 using additional bands            6
 reciprocal scheme for non local part
 use partial core charges (new method) 
 calculate Harris-corrections to forces 
   (improved forces if not selfconsistent)
 use gradient corrections 
 use of overlap-Matrix (Vanderbilt PP)
 Gauss-broadening in eV      SIGMA  =   0.05


--------------------------------------------------------------------------------------------------------


  energy-cutoff  :      300.00
  volume of cell :       40.00
      direct lattice vectors                 reciprocal lattice vectors
     3.348917861  0.000000000  1.933500000     0.298618350  0.000000000 -0.516945316
     1.116305954  3.157408094  1.933500000     0.000000000  0.316699509 -0.000000000
     0.000000000  0.000000000  3.867000000     0.000000000  0.000000000  0.258638104

  length of vectors
     3.867000000  3.867000000  3.867000000     0.596184777  0.316699509  0.258638104


 
 k-points in units of 2pi/SCALE and weight: automatic mesh                          
   0.00000000  0.00000000  0.00000000       0.037
   0.00000000  0.00000000  0.06459952       0.037
   0.00000000  0.00000000  0.12919905       0.037
   0.00000000  0.00000000  0.19379857       0.037
   0.00000000  0.07917488  0.00000000       0.037
   0.00000000  0.07917488  0.06459952       0.037
   0.00000000  0.07917488  0.12919905       0.037
   0.00000000  0.07917488  0.19379857       0.037
   0.07465459  0.00000000 -0.12923633       0.037
   0.07465459  0.00000000 -0.06463681       0.037
   0.07465459  0.00000000 -0.00003728       0.037
   0.07465459  0.00000000  0.06456224       0.037
   0.07465459  0.07917488 -0.12923633       0.037
   0.07465459  0.07917488 -0.06463681       0.037
   0.07465459  0.07917488 -0.00003728       0.037
   0.07465459  0.07917488  0.06456224       0.037
   0.14930917  0.00000000 -0.25847266       0.037
   0.14930917  0.00000000 -0.19387314       0.037
   0.14930917  0.00000000 -0.12927361       0.037
   0.14930917  0.00000000 -0.06467409       0.037
   0.14930917  0.07917488 -0.25847266       0.037
   0.14930917  0.07917488 -0.19387314       0.037
   0.14930917  0.07917488 -0.12927361       0.037
   0.14930917  0.07917488 -0.06467409       0.037
   0.22396376  0.00000000 -0.38770899       0.037
   0.22396376  0.00000000 -0.32310947       0.037
   0.22396376  0.00000000 -0.25850994       0.037
 
 k-points in reciprocal lattice and weights: automatic mesh                          
   0.00000000  0.00000000  0.00000000       0.037
   0.00000000  0.00000000  0.25000000       0.037
   0.00000000  0.00000000  0.50000000       0.037
   0.00000000  0.00000000  0.75000000       0.037
   0.00000000  0.25000000  0.00000000       0.037
   0.00000000  0.25000000  0.25000000       0.037
   0.00000000  0.25000000  0.50000000       0.037
   0.00000000  0.25000000  0.75000000       0.037
   0.25000000  0.00000000 -0.50000000       0.037
   0.25000000  0.00000000 -0.25000000       0.037
   0.25000000  0.00000000  0.00000000       0.037
   0.25000000  0.00000000  0.25000000       0.037
   0.25000000  0.25000000 -0.50000000       0.037
   0.25000000  0.25000000 -0.25000000       0.037
   0.25000000  0.25000000  0.00000000       0.037
   0.25000000  0.25000000  0.25000000       0.037
   0.50000000  0.00000000 -1.00000000       0.037
   0.50000000  0.00000000 -0.75000000       0.037
   0.50000000  0.00000000 -0.50000000       0.037
   0.50000000  0.00000000 -0.25000000       0.037
   0.50000000  0.25000000 -1.00000000       0.037
   0.50000000  0.25000000 -0.75000000       0.037
   0.50000000  0.25000000 -0.50000000       0.037
   0.50000000  0.25000000 -0.25000000       0.037
   0.75000000  0.00000000 -1.50000000       0.037
   0.75000000  0.00000000 -1.25000000       0.037
   0.75000000  0.00000000 -1.00000000       0.037
 
 position of ions in fractional coordinates (direct lattice) 
   0.00000000  0.00000000  0.00000000
   0.25000000  0.25000000  0.25000000
 
 position of ions in cartesian coordinates  (Angst):
   0.00000000  0.00000000  0.00000000
   1.11630595  0.78935202  0.96675000
 


--------------------------------------------------------------------------------------------------------


 use parallel FFT for wavefunctions z direction half grid
 k-point  1 :   0.0000 0.0000 0.0000  plane waves:    1471
 k-point  2 :   0.0000 0.0000 0.2500  plane waves:    1459
 k-point  3 :   0.0000 0.0000 0.5000  plane waves:    1461
 k-point  4 :   0.0000 0.0000 0.7500  plane waves:    1459
 k-point  5 :   0.0000 0.2500 0.0000  plane waves:    1461
 k-point  6 :   0.0000 0.2500 0.2500  plane waves:    1459
 k-point  7 :   0.0000 0.2500 0.5000  plane waves:    1465
 k-point  8 :   0.0000 0.2500 0.7500  plane waves:    1459
 k-point  9 :   0.2500 0.0000-0.5000  plane waves:    1461
 k-point 10 :   0.2500 0.0000-0.2500  plane waves:    1463
 k-point 11 :   0.2500 0.0000 0.0000  plane waves:    1461
 k-point 12 :   0.2500 0.0000 0.2500  plane waves:    1463
 k-point 13 :   0.2500 0.2500-0.5000  plane waves:    1459
 k-point 14 :   0.2500 0.2500-0.2500  plane waves:    1467
 k-point 15 :   0.2500 0.2500 0.0000  plane waves:    1459
 k-point 16 :   0.2500 0.2500 0.2500  plane waves:    1467
 k-point 17 :   0.5000 0.0000-1.0000  plane waves:    1461
 k-point 18 :   0.5000 0.0000-0.7500  plane waves:    1461
 k-point 19 :   0.5000 0.0000-0.5000  plane waves:    1465
 k-point 20 :   0.5000 0.0000-0.2500  plane waves:    1461
 k-point 21 :   0.5000 0.2500-1.0000  plane waves:    1459
 k-point 22 :   0.5000 0.2500-0.7500  plane waves:    1463
 k-point 23 :   0.5000 0.2500-0.5000  plane waves:    1465
 k-point 24 :   0.5000 0.2500-0.2500  plane waves:    1463
 k-point 25 :   0.7500 0.0000-1.5000  plane waves:    1459
 k-point 26 :   0.7500 0.0000-1.2500  plane waves:    1459
 k-point 27 :   0.7500 0.0000-1.0000  plane waves:    1459

 maximum and minimum number of plane-waves per node :      1471     1459

 maximum number of plane-waves:      1471
 maximum index in each direction: 
   IXMAX=    5   IYMAX=    5   IZMAX=    5
   IXMIN=   -5   IYMIN=   -5   IZMIN=    0

 NGX is ok and might be reduce to 20
 NGY is ok and might be reduce to 20
 NGZ is ok and might be reduce to 20

 parallel FFT for charge:
    minimum data set size       2(     27)


 total amount of memory used by VASP on root node    47692. kBytes
========================================================================

   base      :      30000. kBytes
   nonl-proj :       3192. kBytes
   fftplans  :       2132. kBytes
   grid      :       4563. kBytes
   one-center:         23. kBytes
   wavefun   :       7782. kBytes
 
     INWAV:  cpu time    0.0000: real time    0.0021
 Broyden mixing: mesh for mixing (old mesh)
   NGX = 11   NGY = 11   NGZ = 11
  (NGX  = 40   NGY  = 40   NGZ  = 40)
  gives a total of   1331 points

 initial charge density was supplied:
 charge density of overlapping atoms calculated
 number of electron       8.0000000 magnetization 
 keeping initial charge density in first step


--------------------------------------------------------------------------------------------------------


 Maximum index for augmentation-charges          961 (set IRDMAX)


--------------------------------------------------------------------------------------------------------


 First call to EWALD:  gamma=   0.177
 Maximum number of real-space cells 3x 3x 3
 Maximum number of reciprocal cells 3x 3x 3

 FEWALD executed in parallel
    FEWALD:  cpu time    0.0009: real time    0.0009


--------------------------------------------------------------------------------------------------------


 POTLOK:  cpu time    0.0212: real time    0.0213


--------------------------------------------------------------------------------------------------------


 INCAR:
   ENCUT  =  300.0000

 POTCAR:    PAW_PBE Si 05Jan2001                   

   TITEL  = PAW_PBE Si 05Jan2001


--------------------------------------------------------------------------------------------------------


   ICORE   =         2
   ENMAX   =   245.345
   ENMIN   =   184.009
   EATOM   =   103.0669
   POMASS  =    28.085
   ZVAL    =     4.000
   RWIGS   =     2.480
   EAUG    =   322.069


 exchange correlation table for  LEXCH =        8
   RHO(1)=    0.500       N(1)  =     2000
   RHO(2)=  100.500       N(2)  =     4000



--------------------------------------------------------------------------------------------------------


 ion  position               nearest neighbor table
   1  0.000  0.000  0.000-   2 2.37   2 2.37   2 2.37   2 2.37
   2  0.250  0.250  0.250-   1 2.37   1 2.37   1 2.37   1 2.37
 
  LATTYP: Found a simple cubic cell.
 ALAT       =     3.8670000000
  
  Lattice vectors:
  
 A1 = (   3.8670000000,   0.0000000000,   0.0000000000)
 A2 = (   0.0000000000,   3.8670000000,   0.0000000000)
 A3 = (   0.0000000000,   0.0000000000,   3.8670000000)


Analysis of symmetry for initial positions (statically):
=====================================================================
 Subroutine PRICEL returns:
 Original cell was already a primitive cell.
 

 Routine SETGRP: Setting up the symmetry group for a 
 simple cubic supercell.


 Subroutine GETGRP returns: Found 48 space group operations
 (whereof 48 operations were pure point group operations)
 out of a pool of 48 trial point group operations.


The static configuration has the point symmetry O_h .


Analysis of symmetry for dynamics (positions and initial velocities):
=====================================================================
 Subroutine PRICEL returns:
 Original cell was already a primitive cell.
 

 Routine SETGRP: Setting up the symmetry group for a 
 simple cubic supercell.


 Subroutine GETGRP returns: Found 48 space group operations
 (whereof 48 operations were pure point group operations)
 out of a pool of 48 trial point group operations.


The dynamic configuration has the point symmetry O_h .
 
 
 KPOINTS: automatic mesh                          

Automatic generation of k-mesh.
Space group operators:
 irot       det(A)        alpha          n_x          n_y          n_z        tau_x        tau_y        tau_z
    1     1.000000     0.000000     1.000000     0.000000     0.000000     0.000000     0.000000     0.000000
    2     1.000000   180.000000     0.000000     0.000000     1.000000     0.000000     0.000000     0.000000
    3     1.000000   180.000000     0.000000     1.000000     0.000000     0.000000     0.000000     0.000000
    4     1.000000   180.000000     1.000000     0.000000     0.000000     0.000000     0.000000     0.000000
    5    -1.000000     0.000000     1.000000     0.000000     0.000000     0.000000     0.000000     0.000000
    6    -1.000000   180.000000     0.000000     0.000000     1.000000     0.000000     0.000000     0.000000
    7    -1.000000   180.000000     0.000000     1.000000     0.000000     0.000000     0.000000     0.000000
    8    -1.000000   180.000000     1.000000     0.000000     0.000000     0.000000     0.000000     0.000000
 
 Subroutine IBZKPT returns following result:
 ===========================================
 
 Found     27 irreducible k-points:
 
 Following reciprocal coordinates:
            Coordinates               Weight
  0.000000  0.000000  0.000000      0.037037
  0.000000  0.000000  0.250000      0.037037
  0.000000  0.000000  0.500000      0.037037
  0.000000  0.000000  0.750000      0.037037
  0.000000  0.250000  0.000000      0.037037
  0.000000  0.250000  0.250000      0.037037
  0.000000  0.250000  0.500000      0.037037
  0.000000  0.250000  0.750000      0.037037
  0.250000  0.000000 -0.500000      0.037037
  0.250000  0.000000 -0.250000      0.037037
  0.250000  0.000000  0.000000      0.037037
  0.250000  0.000000  0.250