vasp.5.4.4.18Apr17-6-g9f103f2a35 (build Feb 15 2019 15:36:04) complex
 
 executed on LinuxIFC date 2024.01.15  09:23:45
 running on   16 total cores
 distrk:  each k-point on   16 cores,    1 groups
 distr:  one band on NCORES_PER_BAND=   4 cores,    4 groups


--------------------------------------------------------------------------------------------------------


 INCAR:
 POTCAR:    PAW_PBE Si 05Jan2001                   
 POTCAR:    PAW_PBE Si 05Jan2001                   
   VRHFIN =Si: s2p2
   LEXCH  = PE
   EATOM  =   103.0669 eV,    7.5752 Ry

   TITEL  = PAW_PBE Si 05Jan2001
   LULTRA =        F    use ultrasoft PP ?
   IUNSCR =        1    unscreen: 0-lin 1-nonlin 2-no
   RPACOR =    1.500    partial core radius
   POMASS =   28.085; ZVAL   =    4.000    mass and valenz
   RCORE  =    1.900    outmost cutoff radius
   RWIGS  =    2.480; RWIGS  =    1.312    wigner-seitz radius (au A)
   ENMAX  =  245.345; ENMIN  =  184.009 eV
   ICORE  =        2    local potential
   LCOR   =        T    correct aug charges
   LPAW   =        T    paw PP
   EAUG   =  322.069
   DEXC   =    0.000
   RMAX   =    1.950    core radius for proj of wfct
   RAUG   =    1.300    factor for augmentation sphere
   RDEP   =    1.943    radius for radial grids
   RDEPT  =    1.542    core radius for aug sphere

   Atomic configuration
    6 entries
     n  l   j            E        occ.
     1  0  0.50     -785.9352   2.0000
     2  0  0.50      -76.7921   2.0000
     3  1  0.50      -49.0622   6.0000
     2  1  0.50       -4.0817   0.0000
     3  2  1.50       -1.3606   0.0000
     4  3  2.50       -1.3606   0.0000
   Description
     l       E           TYP  RCUT    TYP  RCUT
     0    -76.7921304     23  1.900
     0     -4.0817478     23  1.900
     1    -49.0621985     23  1.900
     1     -1.3605955     23  1.900
     2     -1.3606057     7   1.900
  local pseudopotential read in
  partial core-charges read in
  partial kinetic energy density read in
  atomic valenz-charges read in
  non local Contribution for L=           0  read in
    real space projection operators read in
  non local Contribution for L=           0  read in
    real space projection operators read in
  non local Contribution for L=           1  read in
    real space projection operators read in
  non local Contribution for L=           1  read in
    real space projection operators read in
  non local Contribution for L=           2  read in
    real space projection operators read in
    PAW grid and wavefunctions read in
 
   number of l-projection  operators is LMAX  =           5
   number of lm-projection operators is LMMAX =          13
 

 ----------------------------------------------------------------------------- 
|                                                                             |
|           W    W    AA    RRRRR   N    N  II  N    N   GGGG   !!!           |
|           W    W   A  A   R    R  NN   N  II  NN   N  G    G  !!!           |
|           W    W  A    A  R    R  N N  N  II  N N  N  G       !!!           |
|           W WW W  AAAAAA  RRRRR   N  N N  II  N  N N  G  GGG   !            |
|           WW  WW  A    A  R   R   N   NN  II  N   NN  G    G                |
|           W    W  A    A  R    R  N    N  II  N    N   GGGG   !!!           |
|                                                                             |
|      For optimal performance we recommend to set                            |
|        NCORE= 4 - approx SQRT( number of cores)                             |
|      NCORE specifies how many cores store one orbital (NPAR=cpu/NCORE).     |
|      This setting can  greatly improve the performance of VASP for DFT.     |
|      The default,   NCORE=1            might be grossly inefficient         |
|      on modern multi-core architectures or massively parallel machines.     |
|      Do your own testing !!!!                                               |
|      Unfortunately you need to use the default for GW and RPA calculations. |
|      (for HF NCORE is supported but not extensively tested yet)             |
|                                                                             |
 ----------------------------------------------------------------------------- 

 
 SYSTEM =  Si bulk
 POSCAR =  Si2

 Startparameter for this run:
   NWRITE =      2    write-flag & timer
   PREC   = accura    normal or accurate (medium, high low for compatibility)
   ISTART =      0    job   : 0-new  1-cont  2-samecut
   ICHARG =      2    charge: 1-file 2-atom 10-const
   ISPIN  =      1    spin polarized calculation?
   LNONCOLLINEAR =      F non collinear calculations
   LSORBIT =      F    spin-orbit coupling
   INIWAV =      1    electr: 0-lowe 1-rand  2-diag
   LASPH  =      T    aspherical Exc in radial PAW
   METAGGA=      F    non-selfconsistent MetaGGA calc.

 Electronic Relaxation 1
   ENCUT  =  350.0 eV  25.73 Ry    5.07 a.u.  10.58 10.58 10.58*2*pi/ulx,y,z
   ENINI  =  350.0     initial cutoff
   ENAUG  =  322.1 eV  augmentation charge cutoff
   NELM   =     60;   NELMIN=  2; NELMDL= -5     # of ELM steps 
   EDIFF  = 0.1E-05   stopping-criterion for ELM
   LREAL  =      F    real-space projection
   NLSPLINE    = F    spline interpolate recip. space projectors
   LCOMPAT=      F    compatible to vasp.4.4
   GGA_COMPAT  = T    GGA compatible to vasp.4.4-vasp.4.6
   LMAXPAW     = -100 max onsite density
   LMAXMIX     =    2 max onsite mixed and CHGCAR
   VOSKOWN=      0    Vosko Wilk Nusair interpolation
   ROPT   =    0.00000   0.00000
 Ionic relaxation
   EDIFFG = 0.1E-04   stopping-criterion for IOM
   NSW    =      0    number of steps for IOM
   NBLOCK =      1;   KBLOCK =      1    inner block; outer block 
   IBRION =     -1    ionic relax: 0-MD 1-quasi-New 2-CG
   NFREE  =      0    steps in history (QN), initial steepest desc. (CG)
   ISIF   =      2    stress and relaxation
   IWAVPR =     10    prediction:  0-non 1-charg 2-wave 3-comb
   ISYM   =      2    0-nonsym 1-usesym 2-fastsym
   LCORR  =      T    Harris-Foulkes like correction to forces

   POTIM  = 0.5000    time-step for ionic-motion
   TEIN   =    0.0    initial temperature
   TEBEG  =    0.0;   TEEND  =   0.0 temperature during run
   SMASS  =  -3.00    Nose mass-parameter (am)
   estimated Nose-frequenzy (Omega)   =  0.10E-29 period in steps =****** mass=  -0.280E-25a.u.
   SCALEE = 1.0000    scale energy and forces
   NPACO  =    256;   APACO  = 16.0  distance and # of slots for P.C.
   PSTRESS=    0.0 pullay stress

  Mass of Ions in am
   POMASS =  28.09
  Ionic Valenz
   ZVAL   =   4.00
  Atomic Wigner-Seitz radii
   RWIGS  =  -1.00
  virtual crystal weights 
   VCA    =   1.00   1.00
   NELECT =       8.0000    total number of electrons
   NUPDOWN=      -1.0000    fix difference up-down

 DOS related values:
   EMIN   =  10.00;   EMAX   =-10.00  energy-range for DOS
   EFERMI =   0.00
   ISMEAR =     0;   SIGMA  =   0.05  broadening in eV -4-tet -1-fermi 0-gaus

 Electronic relaxation 2 (details)
   IALGO  =     38    algorithm
   LDIAG  =      T    sub-space diagonalisation (order eigenvalues)
   LSUBROT=      F    optimize rotation matrix (better conditioning)
   TURBO    =      0    0=normal 1=particle mesh
   IRESTART =      0    0=no restart 2=restart with 2 vectors
   NREBOOT  =      0    no. of reboots
   NMIN     =      0    reboot dimension
   EREF     =   0.00    reference energy to select bands
   IMIX   =      4    mixing-type and parameters
     AMIX     =   0.40;   BMIX     =  1.00
     AMIX_MAG =   1.60;   BMIX_MAG =  1.00
     AMIN     =   0.10
     WC   =   100.;   INIMIX=   1;  MIXPRE=   1;  MAXMIX= -45

 Intra band minimization:
   WEIMIN = 0.0000     energy-eigenvalue tresh-hold
   EBREAK =  0.21E-08  absolut break condition
   DEPER  =   0.30     relativ break condition  

   TIME   =   0.40     timestep for ELM

  volume/ion in A,a.u.               =      20.02       135.09
  Fermi-wavevector in a.u.,eV,Ry     =   0.899551  11.004295  0.808733
  Thomas-Fermi vector in A           =   1.963261
 
 Write flags
   LWAVE  =      F    write WAVECAR
   LCHARG =      F    write CHGCAR
   LVTOT  =      F    write LOCPOT, total local potential
   LVHAR  =      F    write LOCPOT, Hartree potential only
   LELF   =      F    write electronic localiz. function (ELF)
   LORBIT =      0    0 simple, 1 ext, 2 COOP (PROOUT)


 Dipole corrections
   LMONO  =      F    monopole corrections only (constant potential shift)
   LDIPOL =      F    correct potential (dipole corrections)
   IDIPOL =      0    1-x, 2-y, 3-z, 4-all directions 
   EPSILON=  1.0000000 bulk dielectric constant

 Exchange correlation treatment:
   GGA     =    --    GGA type
   LEXCH   =     8    internal setting for exchange type
   VOSKOWN=      0    Vosko Wilk Nusair interpolation
   LHFCALC =     F    Hartree Fock is set to
   LHFONE  =     F    Hartree Fock one center treatment
   AEXX    =    0.0000 exact exchange contribution

 Linear response parameters
   LEPSILON=     F    determine dielectric tensor
   LRPA    =     F    only Hartree local field effects (RPA)
   LNABLA  =     F    use nabla operator in PAW spheres
   LVEL    =     F    velocity operator in full k-point grid
   LINTERFAST=   F  fast interpolation
   KINTER  =     0    interpolate to denser k-point grid
   CSHIFT  =0.1000    complex shift for real part using Kramers Kronig
   OMEGAMAX=  -1.0    maximum frequency
   DEG_THRESHOLD= 0.2000000E-02 threshold for treating states as degnerate
   RTIME   =    0.100 relaxation time in fs

 Orbital magnetization related:
   ORBITALMAG=     F  switch on orbital magnetization
   LCHIMAG   =     F  perturbation theory with respect to B field
   DQ        =  0.001000  dq finite difference perturbation B field



--------------------------------------------------------------------------------------------------------


 Static calculation
 charge density and potential remain constant during run
 non-spin polarized calculation
 Variant of blocked Davidson
 Davidson routine will perform the subspace rotation
 perform sub-space diagonalisation
    after iterative eigenvector-optimisation
 modified Broyden-mixing scheme, WC =      100.0
 initial mixing is a Kerker type mixing with AMIX =  0.4000 and BMIX =      1.0000
 Hartree-type preconditioning will be used
 using additional bands            6
 reciprocal scheme for non local part
 use partial core charges (new method) 
 calculate Harris-corrections to forces 
   (improved forces if not selfconsistent)
 use gradient corrections 
 use of overlap-Matrix (Vanderbilt PP)
 Gauss-broadening in eV      SIGMA  =   0.05


--------------------------------------------------------------------------------------------------------


  energy-cutoff  :      350.00
  volume of cell :       40.04
      direct lattice vectors                 reciprocal lattice vectors
     3.348396837  0.000000000  1.933500000     0.298686015  0.000000000  0.000000000
     1.116132279  3.157607696  1.933500000     0.099562005  0.316545806  0.000000000
     0.000000000  0.000000000  3.867000000     0.000000000  0.000000000  0.258626013

  length of vectors
     3.867000000  3.867000000  3.867000000     0.298686015  0.333007638  0.258626013


 
 k-points in units of 2pi/SCALE and weight: automatic mesh                          
   0.07471500  0.07913645  0.06465650    0.037
   0.07471500  0.23740936  0.06465650    0.074
   0.22414500  0.07913645  0.06465650    0.074
   0.22414500  0.23740936  0.06465650    0.148
   0.07471500  0.07913645  0.19396951    0.074
   0.07471500  0.23740936  0.19396951    0.148
   0.22414500  0.07913645  0.19396951    0.148
   0.22414500  0.23740936  0.19396951    0.296
 
 k-points in reciprocal lattice and weights: automatic mesh                          
   0.25000000  0.25000000  0.25000000    0.037
   0.25000000  0.75000000  0.25000000    0.074
   0.75000000  0.25000000  0.25000000    0.074
   0.75000000  0.75000000  0.25000000    0.148
   0.25000000  0.25000000  0.75000000    0.074
   0.25000000  0.75000000  0.75000000    0.148
   0.75000000  0.25000000  0.75000000    0.148
   0.75000000  0.75000000  0.75000000    0.296
 
 position of ions in fractional coordinates (direct lattice) 
   0.00000000  0.00000000  0.00000000
   0.25000000  0.25000000  0.25000000
 
 position of ions in cartesian coordinates  (Angst):
   0.00000000  0.00000000  0.00000000
   1.11613228  0.78940192  0.96675000
 


--------------------------------------------------------------------------------------------------------


 k-point  1 :   0.2500 0.2500 0.2500  plane waves:     397
 k-point  2 :   0.2500 0.7500 0.2500  plane waves:     394
 k-point  3 :   0.7500 0.2500 0.2500  plane waves:     394
 k-point  4 :   0.7500 0.7500 0.2500  plane waves:     393
 k-point  5 :   0.2500 0.2500 0.7500  plane waves:     394
 k-point  6 :   0.2500 0.7500 0.7500  plane waves:     393
 k-point  7 :   0.7500 0.2500 0.7500  plane waves:     393
 k-point  8 :   0.7500 0.7500 0.7500  plane waves:     397

 maximum and minimum number of plane-waves per node :       397      393

 maximum number of plane-waves:       397
 maximum index in each direction: 
   IXMAX=    5   IYMAX=    5   IZMAX=    5
   IXMIN=   -5   IYMIN=   -5   IZMIN=   -5


 serial   3D FFT for wavefunctions
 parallel 3D FFT for charge:
    minimum data set size for efficient FFT:    1332
 
 total amount of memory used by VASP on root node   219475. kBytes
========================================================================

   base      :      30000. kBytes
   nonlr-proj:       3724. kBytes
   fftplans  :      14596. kBytes
   grid      :      38250. kBytes
   one-center:         23. kBytes
   wavefun   :     132882. kBytes
 
  
  
 General timing and accounting informations for this job:
 ========================================================
  
                  Total CPU time used (sec):       45.231
                            User time (sec):       42.156
                          System time (sec):        3.075
                         Elapsed time (sec):       46.892
  
                   Maximum memory used (kb):      358840.
                   Average memory used (kb):           0.
  
                          Minor page faults:        58451
                          Major page faults:            0
                 Voluntary context switches:         4892
 


--------------------------------------------------------------------------------------------------------




 DIAG: cpu time    0.9234: real time    0.9451


--------------------------------------------------------------------------------------------------------


    CHARGE:  cpu time    0.7234: real time    0.7412
    FORLOC:  cpu time    0.0234: real time    0.0245
    FORNL :  cpu time    0.3421: real time    0.3501
    STRESS:  cpu time    1.2341: real time    1.2634
    FORHAR:  cpu time    0.0856: real time    0.0877
    MIXING:  cpu time    0.0123: real time    0.0126
    OFIELD:  cpu time    0.0001: real time    0.0001

  FORCE on cell =-STRESS in cart. coord.  units (eV):
  Direction    XX          YY          ZZ          XY          YZ          ZX
  --------------------------------------------------------------------------------------
  Alpha Z     0.00023     0.00023     0.00023
  Ewald      -0.11234    -0.11289    -0.11267     0.00045     0.00012     0.00034
  Hartree     0.54123     0.54156     0.54134     0.00023     0.00008     0.00016
  E(xc)      -2.12345    -2.12367    -2.12356    -0.00012    -0.00004    -0.00008
  Local      -2.45678    -2.45712    -2.45689    -0.00034    -0.00011    -0.00023
  n-local    -3.78901    -3.78934    -3.78912    -0.00023    -0.00007    -0.00015
  augment     0.12345     0.12356     0.12348     0.00006     0.00002     0.00004
  Kinetic     7.81689     7.81789     7.81741    -0.00005    -0.00001    -0.00003
  Fock        0.00000     0.00000     0.00000     0.00000     0.00000     0.00000
  -------------------------------------------------------------------------------------
  Total       0.00022     0.00022     0.00022     0.00000     0.00000     0.00000
  in kB       0.00821     0.00821     0.00821     0.00000     0.00000     0.00000
  external pressure =        0.01 kB  Pullay stress =        0.00 kB


 VOLUME and BASIS-vectors are now :
 -----------------------------------------------------------------------------
  energy-cutoff  :      350.00
  volume of cell :       40.04
      direct lattice vectors                 reciprocal lattice vectors
     3.348396837  0.000000000  1.933500000     0.298686015  0.000000000  0.000000000
     1.116132279  3.157607696  1.933500000     0.099562005  0.316545806  0.000000000
     0.000000000  0.000000000  3.867000000     0.000000000  0.000000000  0.258626013
 
  length of vectors
     3.867000000  3.867000000  3.867000000     0.298686015  0.333007638  0.258626013


 FORCES acting on ions
    electron-ion (+dipol)            ewald-force                    non-local-force                 convergence-correction
 -----------------------------------------------------------------------------------------------
   0.134E-12 0.187E-12 -.112E-12   -.135E-12 -.188E-12 0.113E-12   0.234E-14 0.326E-14 -.195E-14   -.123E-14 -.171E-14 0.102E-14
   -.134E-12 -.187E-12 0.112E-12   0.135E-12 0.188E-12 -.113E-12   -.234E-14 -.326E-14 0.195E-14   0.123E-14 0.171E-14 -.102E-14
 -----------------------------------------------------------------------------------------------
   0.000E+00 0.000E+00 0.000E+00   0.000E+00 0.000E+00 0.000E+00   0.000E+00 0.000E+00 0.000E+00   0.000E+00 0.000E+00 0.000E+00
 
 
 POSITION                                       TOTAL-FORCE (eV/Angst)
 -----------------------------------------------------------------------------------
      0.00000      0.00000      0.00000         0.000000      0.000000      0.000000
      1.11613      0.78940      0.96675         0.000000      0.000000      0.000000
 -----------------------------------------------------------------------------------
    total drift:                                0.000000      0.000000      0.000000


--------------------------------------------------------------------------------------------------------



  FREE ENERGIE OF THE ION-ELECTRON SYSTEM (eV)
  ---------------------------------------------------
  free  energy   TOTEN  =       -10.84862345 eV

  energy  without entropy=      -10.84862300  energy(sigma->0) =      -10.84862300


--------------------------------------------------------------------------------------------------------


    POTLOK:  cpu time    0.5234: real time    0.5356


--------------------------------------------------------------------------------------------------------




 Broyden mixing:
  rms(total) = 0.12345E-04    rms(broyden)= 0.12340E-04
  rms(prec ) = 0.13456E-04
  weight for this iteration     100.00

 Free energy of the ion-electron system (eV)
  ---------------------------------------------------
  alpha Z        PSCENC =         0.00683408
  Ewald energy   TEWEN  =       416.28949126
  -Hartree energ DENC   =      -652.67128934
  -exchange      EXHF   =         0.00000000
  -V(xc)+E(xc)   XCENC  =        33.43089456
  PAW double counting   =       389.12345678     -392.45678901
  entropy T*S    EENTRO =         0.00000000
  eigenvalues    EBANDS =       -69.23456789
  atomic energy  EATOM  =       264.66335611
  Solvation  Ediel_sol  =         0.00000000
  ---------------------------------------------------
  free energy    TOTEN  =       -10.84862345 eV

  energy without entropy =      -10.84862300  energy(sigma->0) =      -10.84862300