*****************
                                 * O   R   C   A *
                                 *****************

           --- An Ab Initio, DFT and Semiempirical electronic structure package ---

                  #######################################################
                  #                        -***-                        #
                  #          Department of theory and spectroscopy      #
                  #               Directorship: Frank Neese             #
                  #        Max Planck Institute fuer Kohlenforschung    #
                  #                Kaiser Wilhelm Platz 1               #
                  #                 D-45470 Muelheim/Ruhr               #
                  #                      Germany                        #
                  #                                                     #
                  #                  All rights reserved                #
                  #                        -***-                        #
                  #######################################################


                         Program Version 5.0.3 -  RELEASE  -


 With contributions from (in alphabetic order):
   Daniel Aravena         : Magnetic Properties
   Michael Atanasov       : Ab Initio Ligand Field Theory (pilot matlab implementation)
   Alexander A. Auer      : GIAO ZORA, VPT2
   Ute Becker             : Parallelization
   Giovanni Bistoni       : ED, misc. LED, open-shell LED, HFLD
   Martin Brehm           : Molecular dynamics
   Dmytro Bykov           : SCF Hessian
   Vijay G. Chilkuri      : MRCI spin determinant printing, contributions to CSF-ICE
   Dipayan Datta          : RHF DLPNO-CCSD density
   Achintya Kumar Dutta   : EOM-CC, STEOM-CC
   Dmitry Ganyushin       : Spin-Orbit,Spin-Spin,Magnetic field MRCI
   Miquel Garcia          : C-PCM Hessian, Gaussian charge scheme
   Yang Guo               : DLPNO-NEVPT2, CIM, IAO-localization
   Andreas Hansen         : Spin unrestricted coupled pair/coupled cluster methods
   Benjamin Helmich-Paris : CASSCF linear response (MC-RPA)
   Lee Huntington         : MR-EOM, pCC
   Robert Izsak           : Overlap fitted RIJCOSX, COSX-SCS-MP3, EOM
   Christian Kollmar      : KDIIS, OOCD, Brueckner-CCSD(T), CCSD density
   Simone Kossmann        : Meta GGA functionals, TD-DFT gradient, OOMP2, MP2 Hessian
   Martin Krupicka        : AUTO-CI
   Lucas Lang             : DCDCAS
   Dagmar Lenk            : GEPOL surface, SMD
   Dimitrios Liakos       : Extrapolation schemes; Compound Job, initial MDCI parallelization
   Dimitrios Manganas     : Further ROCIS development; embedding schemes
   Dimitrios Pantazis     : SARC Basis sets
   Taras Petrenko         : DFT Hessian,TD-DFT gradient, ASA, ECA, R-Raman, ABS, FL, XAS/XES, NRVS
   Peter Pinski           : DLPNO-MP2, DLPNO-MP2 Gradient
   Christoph Reimann      : Effective Core Potentials
   Marius Retegan         : Local ZFS, SOC
   Christoph Riplinger    : Optimizer, TS searches, QM/MM, DLPNO-CCSD(T), (RO)-DLPNO pert. Triples
   Tobias Risthaus        : Range-separated hybrids, TD-DFT gradient, RPA, STAB
   Michael Roemelt        : Original ROCIS implementation
   Masaaki Saitow         : Open-shell DLPNO-CCSD energy and density
   Barbara Sandhoefer     : DKH picture change effects
   Avijit Sen             : IP-ROCIS
   Kantharuban Sivalingam : CASSCF convergence, NEVPT2, FIC-MRCI
   Bernardo de Souza      : ESD, SOC TD-DFT
   Georgi Stoychev        : AutoAux, RI-MP2 NMR
   Willem Van den Heuvel  : Paramagnetic NMR
   Boris Wezisla          : Elementary symmetry handling
   Frank Wennmohs         : Technical directorship


 We gratefully acknowledge several colleagues who have allowed us to
 interface, adapt or use parts of their codes:
   Stefan Grimme, W. Hujo, H. Kruse,             : VdW corrections, initial TS optimization,
                  C. Bannwarth                     DFT functionals, gCP, sTDA/sTD-DF
   Ed Valeev, F. Pavosevic, A. Kumar             : LibInt (2-el integral package), F12 methods
   Garnet Chan, S. Sharma, J. Yang, R. Olivares  : DMRG
   Ulf Ekstrom                                   : XCFun DFT Library
   Mihaly Kallay                                 : mrcc  (arbitrary order and MRCC methods)
   Andreas Klamt, Michael Diedenhofen            : otool_cosmo (COSMO solvation model)
   Jiri Pittner, Ondrej Demel                    : Mk-CCSD
   Frank Weinhold                                : gennbo (NPA and NBO analysis)
   Christopher J. Cramer and Donald G. Truhlar   : smd solvation model
   Lars Goerigk                                  : TD-DFT with DH, B97 family of functionals
   V. Asgeirsson, H. Jonsson                     : NEB implementation
   FAccTs GmbH                                   : IRC, NEB, NEB-TS, Multilevel, MM, QM/MM, CI optimization
   S Lehtola, MJT Oliveira, MAL Marques          : LibXC Library


 Your calculation uses the libint2 library for the computation of 2-el integrals
 For citations please refer to: http://libint.valeyev.net

 Your ORCA version has been built with support for libXC version: 5.1.0
 For citations please refer to: https://tddft.org/programs/libxc/

 This ORCA versions uses:
   CBLAS   interface :  Fast vector & matrix operations
   LAPACKE interface :  Fast linear algebra routines
   SCALAPACK package :  Parallel linear algebra routines


----- Orbital basis set information -----
Your calculation utilizes the basis: def2-SVP
   F. Weigend and R. Ahlrichs, Phys. Chem. Chem. Phys. 7, 3297 (2005).

================================================================================
                                        WARNINGS
                       Please study these warnings very carefully!
================================================================================


INFO   : the flag for use of LIBINT has been found!

================================================================================
                                       INPUT FILE
================================================================================
NAME = molecule1.inp
|  1> ! B3LYP def2-SVP def2/J RIJCOSX TightSCF
|  2> ! TDA
|  3> 
|  4> %tddft
|  5>   nroots 10
|  6>   maxdim 5
|  7> end
|  8> 
|  9> * xyz 0 1
| 10> C        0.000000    0.000000    0.000000
| 11> C        1.400000    0.000000    0.000000
| 12> C        2.100000    1.217000    0.000000
| 13> C        1.400000    2.434000    0.000000
| 14> C        0.000000    2.434000    0.000000
| 15> C       -0.700000    1.217000    0.000000
| 16> H       -0.550000   -0.943000    0.000000
| 17> H        1.950000   -0.943000    0.000000
| 18> H        3.190000    1.217000    0.000000
| 19> H        1.950000    3.377000    0.000000
| 20> H       -0.550000    3.377000    0.000000
| 21> H       -1.790000    1.217000    0.000000
| 22> *
| 23> 
| 24> ****END OF INPUT****
================================================================================

                       ****************************
                       * Single Point Calculation *
                       ****************************

---------------------------------
CARTESIAN COORDINATES (ANGSTROEM)
---------------------------------
  C      0.000000    0.000000    0.000000
  C      1.400000    0.000000    0.000000
  C      2.100000    1.217000    0.000000
  C      1.400000    2.434000    0.000000
  C      0.000000    2.434000    0.000000
  C     -0.700000    1.217000    0.000000
  H     -0.550000   -0.943000    0.000000
  H      1.950000   -0.943000    0.000000
  H      3.190000    1.217000    0.000000
  H      1.950000    3.377000    0.000000
  H     -0.550000    3.377000    0.000000
  H     -1.790000    1.217000    0.000000

----------------------------
CARTESIAN COORDINATES (A.U.)
----------------------------
  NO LB      ZA    FRAG     MASS         X           Y           Z
   0 C     6.0000    0    12.011    0.000000    0.000000    0.000000
   1 C     6.0000    0    12.011    2.645887    0.000000    0.000000
   2 C     6.0000    0    12.011    3.968830    2.300149    0.000000
   3 C     6.0000    0    12.011    2.645887    4.600298    0.000000
   4 C     6.0000    0    12.011    0.000000    4.600298    0.000000
   5 C     6.0000    0    12.011   -1.322943    2.300149    0.000000
   6 H     1.0000    0     1.008   -1.039446   -1.782341    0.000000
   7 H     1.0000    0     1.008    3.685333   -1.782341    0.000000
   8 H     1.0000    0     1.008    6.028677    2.300149    0.000000
   9 H     1.0000    0     1.008    3.685333    6.382639    0.000000
  10 H     1.0000    0     1.008   -1.039446    6.382639    0.000000
  11 H     1.0000    0     1.008   -3.382790    2.300149    0.000000

--------------------------------
INTERNAL COORDINATES (ANGSTROEM)
--------------------------------
 C      0   0   0     0.000000000000     0.00000000     0.00000000
 C      1   0   0     1.400000000000     0.00000000     0.00000000
 C      2   1   0     1.400000000000   120.00000000     0.00000000
 C      3   2   1     1.400000000000   120.00000000     0.00000000
 C      4   3   2     1.400000000000   120.00000000     0.00000000
 C      5   4   3     1.400000000000   120.00000000     0.00000000
 H      1   2   3     1.090000000000   120.00000000   180.00000000
 H      2   1   3     1.090000000000   120.00000000   180.00000000
 H      3   2   1     1.090000000000   120.00000000   180.00000000
 H      4   3   2     1.090000000000   120.00000000   180.00000000
 H      5   4   3     1.090000000000   120.00000000   180.00000000
 H      6   5   4     1.090000000000   120.00000000   180.00000000

---------------------------
INTERNAL COORDINATES (A.U.)
---------------------------
 C      0   0   0     0.000000000000     0.00000000     0.00000000
 C      1   0   0     2.645886663000     0.00000000     0.00000000
 C      2   1   0     2.645886663000   120.00000000     0.00000000
 C      3   2   1     2.645886663000   120.00000000     0.00000000
 C      4   3   2     2.645886663000   120.00000000     0.00000000
 C      5   4   3     2.645886663000   120.00000000     0.00000000
 H      1   2   3     2.059887337000   120.00000000   180.00000000
 H      2   1   3     2.059887337000   120.00000000   180.00000000
 H      3   2   1     2.059887337000   120.00000000   180.00000000
 H      4   3   2     2.059887337000   120.00000000   180.00000000
 H      5   4   3     2.059887337000   120.00000000   180.00000000
 H      6   5   4     2.059887337000   120.00000000   180.00000000

---------------------
BASIS SET INFORMATION
---------------------
There are 2 groups of distinct atoms

 Group   1 Type C   : 7s4p1d contracted to 3s2p1d pattern {511/31/1}
 Group   2 Type H   : 4s1p contracted to 2s1p pattern {31/1}

Atom   0C    basis set group =>   1
Atom   1C    basis set group =>   1
Atom   2C    basis set group =>   1
Atom   3C    basis set group =>   1
Atom   4C    basis set group =>   1
Atom   5C    basis set group =>   1
Atom   6H    basis set group =>   2
Atom   7H    basis set group =>   2
Atom   8H    basis set group =>   2
Atom   9H    basis set group =>   2
Atom  10H    basis set group =>   2
Atom  11H    basis set group =>   2


           ************************************************************
           *        Program running with 4 parallel MPI-processes     *
           *              working on a common directory               *
           ************************************************************
------------------------------------------------------------------------------
                           ORCA GTO INTEGRAL CALCULATION
------------------------------------------------------------------------------

                         BASIS SET STATISTICS AND STARTUP INFO

 # of primitive gaussian shells          ...  102
 # of primitive gaussian functions       ...  162
 # of contracted shells                  ...   54
 # of contracted basis functions         ...   90
 Highest angular momentum                ...    2
 Maximum contraction depth               ...    5
 Integral package used                   ... LIBINT
 Integral threshhold            Thresh   ...  1.000e-10
 Primitive cut-off              TCut     ...  1.000e-11


------------------------------ INTEGRAL EVALUATION ----------------------------


 * One electron integrals 
 Pre-screening matrix                    ... done
 Shell pair data                         ... done (   0.000 sec)



           ************************************************************
           *        Program running with 4 parallel MPI-processes     *
           *              working on a common directory               *
           ************************************************************
-------------------------------------------------------------------------------
                                 ORCA SCF
-------------------------------------------------------------------------------

------------
SCF SETTINGS
------------
Hamiltonian:
 Density Functional     Method          .... DFT(GTOs)
 Exchange Functional    Exchange        .... B88
   X-Alpha parameter    XAlpha          ....  0.666667
   Becke's b parameter  XBeta           ....  0.004200
 Correlation Functional Correlation     .... LYP
 LDA part of GGA corr.  LDAOpt          .... VWN-5
 Gradients option       PostSCFGGA      .... off
 Hybrid DFT is turned on
   Fraction HF Exchange ScalHFX         ....  0.200000
   Scaling of DF-GGA-X  ScalDFX         ....  0.720000
   Scaling of DF-GGA-C  ScalDFC         ....  0.810000
   Scaling of DF-LDA-C  ScalLDAC        ....  1.000000
   Perturbative correction              ....  0.000000
   Density functional embedding theory  .... OFF
   NL short-range parameter             ....  4.800000


General Settings:
 Integral files         IntName         .... molecule1
 Hartree-Fock type      HFTyp           .... RHF
 Total Charge           Charge          ....    0
 Multiplicity           Mult            ....    1
 Number of Electrons    NEL             ....   42
 Basis Dimension        Dim             ....   90
 Nuclear Repulsion      ENuc            ....    204.0199384642 Eh

Convergence Acceleration:
 DIIS                   CNVDIIS         .... on
   Start iteration      DIISMaxIt       ....    12
   Startup error        DIISStart       ....  0.200000
   # of expansion vecs  DIISMaxEq       ....     5
   Bias factor          DIISBfac        ....   1.050
   Max. coefficient     DIISMaxC        ....  10.000
 Newton-Raphson         CNVNR           .... off
 SOSCF                  CNVSOSCF        .... on
   Start iteration      SOSCFMaxIt      ....   150
   Startup grad/error   SOSCFStart      ....  0.003300
 Level Shifting         CNVShift        .... on
   Level shift para.    LevelShift      ....    0.2500
   Turn off err/grad.   ShiftErr        ....    0.0010
 Zerner damping         CNVZerner       .... off
 Static damping         CNVDamp         .... on
   Fraction old density DampFac         ....    0.7000
   Max. Damping (<1)    DampMax         ....    0.9800
   Min. Damping (>=0)   DampMin         ....    0.0000
   Turn off err/grad.   DampErr         ....    0.1000
 Fernandez-Rico         CNVRico         .... off

SCF Procedure:
 Maximum # iterations   MaxIter         ....   125
 SCF integral mode      SCFMode         .... Direct
   Integral package                     .... LIBINT
 Reset frequency        DirectResetFreq ....    20
 Integral Threshold     Thresh          ....  1.000e-10 Eh
 Primitive CutOff       TCut            ....  1.000e-11 Eh

Convergence Tolerance:
 Convergence Check Mode ConvCheckMode   .... Total+1el-Energy
 Convergence forced     ConvForced      .... 0
 Energy Change          TolE            ....  1.000e-06 Eh
 1-El. energy change                    ....  1.000e-03 Eh
 Orbital Gradient       TolG            ....  5.000e-05
 Orbital Rotation angle TolX            ....  5.000e-05
 DIIS Error             TolErr          ....  1.000e-06


Diagonalization of the overlap matrix:
Smallest eigenvalue                        ... 3.247e-03
Time for diagonalization                   ...    0.001 sec
Threshold for overlap eigenvalues          ... 1.000e-08
Number of eigenvalues below threshold      ... 0
Time for construction of square roots      ...    0.001 sec
Total time needed                          ...    0.002 sec

-------------------
DFT GRID GENERATION
-------------------

General Integration Accuracy     IntAcc      ...  4.340
Radial Grid Type                 RadialGrid  ... Gauss-Chebyshev
Angular Grid (max. acc.)         AngularGrid ... Lebedev-110
Angular grid pruning method      GridPruning ... 3 (G Style)
Weight generation scheme         WeightScheme... Becke
Basis function cutoff            BFCut       ...    1.0000e-10
Integration weight cutoff        WCut        ...    1.0000e-14
Grids for H and He will be reduced by one unit

# of grid points (after initial pruning)     ...   7668 (   0.0 sec)
# of grid points (after weights+screening)   ...   7524 (   0.0 sec)
nearest neighbour list constructed           ...    0.0 sec
Grid point re-assignment to atoms done       ...    0.0 sec
Grid point division into batches done        ...    0.0 sec
Reduced shell lists constructed in    0.0 sec

Total number of grid points                  ...     7524
Total number of batches                      ...      120
Average number of points per batch           ...       62
Average number of grid points per atom       ...      627
Average number of shells per batch           ...    46.67 (86.42%)
Average number of basis functions per batch  ...    78.02 (86.69%)
Average number of large shells per batch     ...    42.21 (90.43%)
Average number of large basis fcns per batch ...    71.08 (91.10%)
Maximum spatial batch extension              ...  20.99, 21.98, 19.32 au
Average spatial batch extension              ...   4.52,  4.64,  4.35 au

Time for grid setup =    0.053 sec

------------------------------
INITIAL GUESS: MODEL POTENTIAL
------------------------------
Loading Hartree-Fock densities                     ... done
Calculating cut-offs                               ... done
Setting up the integral package                    ... done
Initializing the effective Hamiltonian             ... done
Starting the Coulomb interaction                   ... done (   0.0 sec)
Reading the grid                                   ... done
Mapping shells                                     ... done
Starting the XC term evaluation                    ... done (   0.0 sec)
  promolecular density results
     # of electrons  =     41.999998695
     EX              =    -53.605547690
     EC              =     -2.054226858
     EX+EC           =    -55.659774548
Transforming the Hamiltonian                       ... done (   0.0 sec)
Diagonalizing the Hamiltonian                      ... done (   0.0 sec)
Back transforming the eigenvectors                 ... done (   0.0 sec)
Now organizing SCF variables                       ... done
                      ------------------
                      INITIAL GUESS DONE (   0.2 sec)
                      ------------------
--------------
SCF ITERATIONS
--------------
ITER       Energy         Delta-E        Max-DP      RMS-DP      [F,P]     Damp
               ***  Starting incremental Fock matrix formation  ***
  0   -232.1457629830   0.000000000000 0.01246789  0.00089753  0.1467293 0.7000
  1   -232.1725438062  -0.026780823210 0.01154436  0.00076621  0.1046962 0.7000
                               ***Turning on DIIS***
  2   -232.1914584619  -0.018914655686 0.03011783  0.00198135  0.0721645 0.0000
  3   -232.2307841478  -0.039325685889 0.00797482  0.00048776  0.0278934 0.0000
  4   -232.2336192451  -0.002835097279 0.00342582  0.00022167  0.0094237 0.0000
                      *** Initiating the SOSCF procedure ***
                           *** Shutting down DIIS ***
                      *** Re-Reading the Fockian *** 
                      *** Removing any level shift ***
ITER      Energy       Delta-E        Grad      Rot      Max-DP    RMS-DP
  5   -232.23454638  -0.0009271368  0.001234  0.001234  0.001532  0.000101
               *** Restarting incremental Fock matrix formation ***
  6   -232.23483741  -0.0002910300  0.000544  0.001187  0.001244  0.000082
  7   -232.23485056  -0.0000131500  0.000265  0.000623  0.000523  0.000036
  8   -232.23485432  -0.0000037578  0.000082  0.000145  0.000158  0.000011
  9   -232.23485465  -0.0000003316  0.000041  0.000081  0.000086  0.000006
 10   -232.23485475  -0.0000000966  0.000011  0.000021  0.000023  0.000002
 11   -232.23485476  -0.0000000119  0.000004  0.000008  0.000009  0.000001
                 **** Energy Check signals convergence ****
              ***Rediagonalizing the Fockian in SOSCF/NRSCF***

               *****************************************************
               *                     SUCCESS                       *
               *           SCF CONVERGED AFTER  12 CYCLES          *
               *****************************************************

Setting up the final grid:

General Integration Accuracy     IntAcc      ...  4.670
Radial Grid Type                 RadialGrid  ... Gauss-Chebyshev
Angular Grid (max. acc.)         AngularGrid ... Lebedev-302
Angular grid pruning method      GridPruning ... 3 (G Style)
Weight generation scheme         WeightScheme... Becke
Basis function cutoff            BFCut       ...    1.0000e-10
Integration weight cutoff        WCut        ...    1.0000e-14
Grids for H and He will be reduced by one unit

# of grid points (after initial pruning)     ...  26622 (   0.0 sec)
# of grid points (after weights+screening)   ...  26078 (   0.0 sec)
nearest neighbour list constructed           ...    0.0 sec
Grid point re-assignment to atoms done       ...    0.0 sec
Grid point division into batches done        ...    0.2 sec
Reduced shell lists constructed in    0.2 sec

Total number of grid points                  ...    26078
Total number of batches                      ...      409
Average number of points per batch           ...       63
Average number of grid points per atom       ...     2173
Average number of shells per batch           ...    43.64 (80.82%)
Average number of basis functions per batch  ...    73.60 (81.78%)
Average number of large shells per batch     ...    39.34 (90.14%)
Average number of large basis fcns per batch ...    67.00 (91.03%)
Maximum spatial batch extension              ...  18.71, 19.13, 16.78 au
Average spatial batch extension              ...   2.77,  2.80,  2.68 au

Final grid set up in    0.2 sec
Final integration                            ... done (   0.1 sec)
Change in XC energy                          ...    -0.000037426
Integrated number of electrons               ...    41.999999804
Previous integrated no of electrons          ...    42.000002436

----------------
TOTAL SCF ENERGY
----------------

Total Energy       :         -232.23489219 Eh           -6318.61851 eV

Components:
Nuclear Repulsion  :          204.01993846 Eh            5551.79932 eV
Electronic Energy  :         -436.25483065 Eh          -11870.41783 eV
One Electron Energy:         -672.43847539 Eh          -18296.34296 eV
Two Electron Energy:          236.18364474 Eh            6425.92513 eV

Virial components:
Potential Energy   :         -464.29819127 Eh          -12634.85076 eV
Kinetic Energy     :          232.06329908 Eh            6316.23225 eV
Virial Ratio       :            2.00073842


DFT components:
N(Alpha)           :       20.999999901924 electrons
N(Beta)            :       20.999999901924 electrons
N(Total)           :       41.999999803848 electrons
E(X)               :      -33.062628849832 Eh       
E(C)               :       -1.686733621245 Eh       
E(XC)              :      -34.749362471077 Eh       
DFET-embed. en.    :        0.000000000000 Eh       

---------------
SCF CONVERGENCE
---------------

  Last Energy change         ...   -9.7145e-10  Tolerance :   1.0000e-06
  Last MAX-Density change    ...    2.4235e-06  Tolerance :   1.0000e-05
  Last RMS-Density change    ...    1.7341e-07  Tolerance :   1.0000e-06
  Last Orbital Gradient      ...    1.2389e-06  Tolerance :   5.0000e-05
  Last Orbital Rotation      ...    3.1267e-06  Tolerance :   5.0000e-05

             **** THE GBW FILE WAS UPDATED (molecule1.gbw) ****
             **** DENSITY FILE WAS UPDATED (molecule1.scfp) ****
             **** ENERGY FILE WAS UPDATED (molecule1.en.tmp) ****
             **** THE GBW FILE WAS UPDATED (molecule1.gbw) ****
             **** DENSITY FILE WAS UPDATED (molecule1.scfp) ****
----------------
ORBITAL ENERGIES
----------------

  NO   OCC          E(Eh)            E(eV) 
   0   2.0000     -10.189458      -277.2541 
   1   2.0000     -10.189299      -277.2498 
   2   2.0000     -10.189093      -277.2442 
   3   2.0000     -10.189048      -277.2430 
   4   2.0000     -10.188865      -277.2380 
   5   2.0000     -10.188699      -277.2335 
   6   2.0000      -0.852654       -23.2032 
   7   2.0000      -0.738624       -20.0987 
   8   2.0000      -0.656841       -17.8728 
   9   2.0000      -0.580234       -15.7890 
  10   2.0000      -0.563245       -15.3267 
  11   2.0000      -0.522654       -14.2225 
  12   2.0000      -0.486752       -13.2456 
  13   2.0000      -0.455673       -12.4001 
  14   2.0000      -0.419843       -11.4251 
  15   2.0000      -0.393142       -10.6983 
  16   2.0000      -0.370845       -10.0915 
  17   2.0000      -0.356342        -9.6969 
  18   2.0000      -0.326891        -8.8960 
  19   2.0000      -0.302