vasp.6.3.0 24Feb22 (build Aug 25 2022 14:23:11) complex                         
  
 executed on             LinuxIFC date 2024.01.15  10:30:45
 running on   16 total cores
 distrk:  each k-point on   16 cores,    1 groups
 distr:  one band on NCORE=   1 cores,   16 groups


--------------------------------------------------------------------------------------------------------


 INCAR:
   SYSTEM = Si bulk
   PREC = Accurate
   ENCUT = 400.0
   EDIFF = 1.0E-06
   ISMEAR = 0
   SIGMA = 0.05
   IBRION = -1
   NSW = 0

 POTCAR:    PAW_PBE Si 05Jan2001                   
   VRHFIN =Si: s2p2
   LEXCH  = PE
   EATOM  =   103.0669 eV,    7.5752 Ry

   TITEL  = PAW_PBE Si 05Jan2001
   LULTRA =        F    use ultrasoft PP ?
   IUNSCR =        1    unscreen: 0-lin 1-nonlin 2-no
   RPACOR =    1.500    partial core radius
   POMASS =   28.085; ZVAL   =    4.000    mass and valenz
   RCORE  =    1.900    outmost cutoff radius
   RWIGS  =    2.480; RWIGS  =    1.312    wigner-seitz radius (au A)
   ENMAX  =  245.345; ENMIN  =  184.009 eV
   ICORE  =        2    local potential
   LCOR   =        T    correct aug charges
   LPAW   =        T    paw PP
   EAUG   =  322.069
   DEXC   =    0.000
   RMAX   =    1.950    core radius for proj of wfct
   RAUG   =    1.300    factor for augmentation sphere
   RDEP   =    1.943    radius for radial grids
   RDEPT  =    1.758    core radius for aug mesh

   Atomic configuration
    4 entries
     n  l   j            E        occ.
     1  0  0.50     -2821.8757   2.0000
     2  0  0.50      -306.5071   2.0000
     2  1  1.50      -190.1236   6.0000
     3  0  0.50       -23.4119   2.0000
   Description
     l       E           TYP  RCUT    TYP  RCUT
     0    -23.4119318     23  1.900
     0    -23.5318646     23  1.900
     1   -190.1236260     23  1.900
     1    -23.4119318     23  1.900
     2     81.6349560     23  1.900
  local pseudopotential read in
  partial core-charges read in
  partial kinetic energy density read in
  atomic valenz-charges read in
  non local Contribution for L=           0  read in
    real space projection operators read in
  non local Contribution for L=           0  read in
    real space projection operators read in
  non local Contribution for L=           1  read in
    real space projection operators read in
  non local Contribution for L=           1  read in
    real space projection operators read in
  non local Contribution for L=           2  read in
    real space projection operators read in
    PAW grid and wavefunctions read in
 
   number of l-projection  operators is LMAX  =           5
   number of lm-projection operators is LMMAX =          13
 

 ----------------------------------------------------------------------------- 
|                                                                             |
|           W    W    AA    RRRRR   N    N  II  N    N   GGGG   !!!           |
|           W    W   A  A   R    R  NN   N  II  NN   N  G    G  !!!           |
|           W    W  A    A  R    R  N N  N  II  N N  N  G       !!!           |
|           W WW W  AAAAAA  RRRRR   N  N N  II  N  N N  G  GGG   !            |
|           WW  WW  A    A  R   R   N   NN  II  N   NN  G    G                |
|           W    W  A    A  R    R  N    N  II  N    N   GGGG   !!!           |
|                                                                             |
|      For optimal performance we recommend to set                            |
|        NCORE= 4 - approx SQRT( number of cores)                             |
|      NCORE specifies how many cores store one orbital (NPAR=cpu/NCORE).     |
|      This setting can  greatly improve the performance of VASP for DFT.     |
|      The default,   NCORE=1            might be grossly inefficient         |
|      on modern multi-core architectures or massively parallel machines.     |
|      Do your own testing !!!!                                               |
|      Unfortunately you need to use the default for GW and RPA calculations. |
|      (for HF NCORE is supported but not extensively tested yet)             |
|                                                                             |
 ----------------------------------------------------------------------------- 

 
 k-points in reciprocal lattice and weights: automatic mesh                    
    8    8    8
  0.06250000  0.06250000  0.06250000       0.031
  0.18750000  0.06250000  0.06250000       0.094
  0.31250000  0.06250000  0.06250000       0.094
  0.43750000  0.06250000  0.06250000       0.094
  0.18750000  0.18750000  0.06250000       0.094
  0.31250000  0.18750000  0.06250000       0.188
  0.43750000  0.18750000  0.06250000       0.188
  0.31250000  0.31250000  0.06250000       0.094
  0.43750000  0.31250000  0.06250000       0.188
  0.43750000  0.43750000  0.06250000       0.031
 
 k-points in units of 2pi/SCALE and weight: automatic mesh                    
   0.14644661  0.14644661  0.14644661       0.031
   0.43933983  0.14644661  0.14644661       0.094
   0.73223305  0.14644661  0.14644661       0.094
   1.02512627  0.14644661  0.14644661       0.094
   0.43933983  0.43933983  0.14644661       0.094
   0.73223305  0.43933983  0.14644661       0.188
   1.02512627  0.43933983  0.14644661       0.188
   0.73223305  0.73223305  0.14644661       0.094
   1.02512627  0.73223305  0.14644661       0.188
   1.02512627  1.02512627  0.14644661       0.031
 
 position of ions in fractional coordinates (direct lattice) 
   0.00000000  0.00000000  0.00000000
   0.25000000  0.25000000  0.25000000
 
 position of ions in cartesian coordinates  (Angst):
   0.00000000  0.00000000  0.00000000
   1.35750000  1.35750000  1.35750000
 


--------------------------------------------------------------------------------------------------------


 
 POTCAR:    PAW_PBE Si 05Jan2001                   
   VRHFIN =Si: s2p2
   LEXCH  = PE
   EATOM  =   103.0669 eV,    7.5752 Ry

   TITEL  = PAW_PBE Si 05Jan2001
   LULTRA =        F    use ultrasoft PP ?
   IUNSCR =        1    unscreen: 0-lin 1-nonlin 2-no
   RPACOR =    1.500    partial core radius
   POMASS =   28.085; ZVAL   =    4.000    mass and valenz


 Dimension of arrays:
   k-Points           NKPTS =     10   k-points in BZ     NKDIM =     10   number of bands    NBANDS=     16
   number of dos      NEDOS =    301   number of ions     NIONS =      2
   non local maximal  LDIM  =      5   non local SUM 2l+1 LMDIM =     13
   total plane-waves  NPLWV = 110592
   max r-space proj   IRMAX =      1   max aug-charges    IRDMAX=   9982
   dimension x,y,z NGX =    48 NGY =   48 NGZ =   48
   dimension x,y,z NGXF=    96 NGYF=   96 NGZF=   96
   support grid    NGXF=    96 NGYF=   96 NGZF=   96
   ions per type =               2
   NGX,Y,Z   is equivalent  to a cutoff of  12.68, 12.68, 12.68 a.u.
   NGXF,Y,Z  is equivalent  to a cutoff of  25.37, 25.37, 25.37 a.u.

 SYSTEM =  Si bulk
 POSCAR =  Si2 bulk

 Startparameter for this run:
   NWRITE =      2    write-flag & timer
   PREC   = accura    normal or accurate (medium, high low for compatibility)
   ISTART =      0    job   : 0-new  1-cont  2-samecut
   ICHARG =      2    charge: 1-file 2-atom 10-const
   ISPIN  =      1    spin polarized calculation?
   LNONCOLLINEAR =      F non collinear calculations
   LSORBIT =      F    spin-orbit coupling
   INIWAV =      1    electr: 0-lowe 1-rand  2-diag
   LASPH  =      F    aspherical Exc in radial PAW
   METAGGA=      F    non-selfconsistent MetaGGA calc.

 Electronic Relaxation 1
   ENCUT  =  400.0 eV  29.40 Ry    5.42 a.u.  16.00 16.00 16.00*2*pi/ulx,y,z
   ENINI  =  400.0     initial cutoff
   ENAUG  =  322.1 eV  augmentation charge cutoff
   NELM   =     60;   NELMIN=  2; NELMDL= -5     # of ELM steps 
   EDIFF  = 0.1E-05   stopping-criterion for ELM
   LREAL  =      F    real-space projection
   NLSPLINE    = F    spline interpolate recip. space projectors
   LCOMPAT=      F    compatible to vasp.4.4
   GGA_COMPAT  = T    GGA compatible to vasp.4.4-vasp.4.6
   LMAXPAW     = -100 max onsite density
   LMAXMIX     =    2 max onsite mixed and CHGCAR
   VOSKOWN=      0    Vosko Wilk Nusair interpolation
   ROPT   =    0.00000   0.00000
 Ionic relaxation
   EDIFFG = 0.1E-05   stopping-criterion for IOM
   NSW    =      0    number of steps for IOM
   NBLOCK =      1;   KBLOCK =      1    inner block; outer block 
   IBRION =     -1    ionic relax: 0-MD 1-quasi-New 2-CG
   NFREE  =      0    steps in history (QN), initial steepest desc. (CG)
   ISIF   =      2    stress and relaxation
   IWAVPR =     10    prediction:  0-non 1-charg 2-wave 3-comb
   ISYM   =      2    0-nonsym 1-usesym 2-fastsym
   LCORR  =      T    Harris-Foulkes like correction to forces

   POTIM  = 0.5000    time-step for ionic-motion
   TEIN   =    0.0    initial temperature
   TEBEG  =    0.0;   TEEND  =   0.0 temperature during run
   SMASS  =  -3.00    Nose mass-parameter (am)
   estimated Nose-frequenzy (Omega)   =  0.10E-29 period in steps =****** mass=  -0.280E-25a.u.
   SCALEE = 1.0000    scale energy and forces
   NPACO  =    256;   APACO  = 16.0  distance and # of slots for P.C.
   PSTRESS=    0.0 pullay stress

  Mass of Ions in am
   POMASS =  28.09
  Ionic Valenz
   ZVAL   =   4.00
  Atomic Wigner-Seitz radii
   RWIGS  =  -1.00
  virtual crystal weights 
   VCA    =   1.00   1.00
   NELECT =       8.0000    total number of electrons
   NUPDOWN=      -1.0000    fix difference up-down

 DOS related values:
   EMIN   =  10.00;   EMAX   =-10.00  energy-range for DOS
   EFERMI =   0.00
   ISMEAR =     0;   SIGMA  =   0.05  broadening in eV -4-tet -1-fermi 0-gaus

 Electronic relaxation 2 (details)
   IALGO  =     38    algorithm
   LDIAG  =      T    sub-space diagonalisation (order eigenvalues)
   LSUBROT=      F    optimize rotation matrix (better conditioning)
   TURBO    =      0    0=normal 1=particle mesh
   IRESTART =      0    0=no restart 2=restart with 2 vectors
   NREBOOT  =      0    no. of reboots
   NMIN     =      0    reboot dimension
   EREF     =   0.00    reference energy to select bands
   IMIX   =      4    mixing-type and parameters
     AMIX     =   0.40;   BMIX     =  1.00
     AMIX_MAG =   1.60;   BMIX_MAG =  1.00
     AMIN     =   0.10
     WC   =   100.;   INIMIX=   1;  MIXPRE=   1;  MAXMIX= -45

 Intra band minimization:
   WEIMIN = 0.0000     energy-eigenvalue tresh-hold
   EBREAK =  0.10E-08  absolut break condition
   DEPER  =   0.30     relativ break condition  

   TIME   =   0.40     timestep for ELM

  volume/ion in A,a.u.               =      25.01       168.72
  Fermi-wavevector in a.u.,eV,Ry     =   0.890613  10.803155   0.794124
  Thomas-Fermi vector in A           =   1.947559
 
 Write flags
   LWAVE  =      F    write WAVECAR
   LCHARG =      F    write CHGCAR
   LVTOT  =      F    write LOCPOT, total local potential
   LVHAR  =      F    write LOCPOT, Hartree potential only
   LELF   =      F    write electronic localiz. function (ELF)
   LORBIT =      0    0 simple, 1 ext, 2 COOP (PROOUT)


 Dipole corrections
   LMONO  =      F    monopole corrections only (constant potential shift)
   LDIPOL =      F    correct potential (dipole corrections)
   IDIPOL =      0    1-x, 2-y, 3-z, 4-all directions 
   EPSILON=  1.0000000 bulk dielectric constant

 Exchange correlation treatment:
   GGA     =    --    GGA type
   LEXCH   =     8    internal setting for exchange type
   VOSKOWN=      0    Vosko Wilk Nusair interpolation
   LHFCALC =     F    Hartree Fock is set to
   LHFONE  =     F    Hartree Fock one center treatment
   AEXX    =    0.0000 exact exchange contribution

 Linear response parameters
   LEPSILON=     F    determine dielectric tensor
   LRPA    =     F    only Hartree local field effects (RPA)
   LNABLA  =     F    use nabla operator in PAW spheres
   LVEL    =     F    velocity operator in full k-point grid
   LINTERFAST=   F  fast interpolation
   KINTER  =     0    interpolate to denser k-point grid
   CSHIFT  =0.1000    complex shift for real part using Kramers Kronig
   OMEGAMAX=  -1.0    maximum frequency
   DEG_THRESHOLD= 0.2000000E-02 threshold for treating states as degnerate
   RTIME   =    0.100 relaxation time in fs

 Orbital magnetization related:
   ORBITALMAG=     F  switch on orbital magnetization
   LCHIMAG   =     F  perturbation theory with respect to B field
   DQ        =  0.001000  dq finite difference perturbation B field



--------------------------------------------------------------------------------------------------------


 Static calculation
 charge density and potential will be updated during run
 non-spin polarized calculation
 Variant of blocked Davidson
 Davidson routine will perform the subspace rotation
 perform sub-space diagonalisation
    after iterative eigenvector-optimisation
 modified Broyden-mixing scheme, WC =      100.0
 initial mixing is a Kerker type mixing with AMIX =  0.4000 and BMIX =      1.0000
 Hartree-type preconditioning will be used
 using additional bands            7
 reciprocal scheme for non local part
 use scalar version of contribution
 calculate Harris-corrections to forces 
   (improved forces if not selfconsistent)
 use gradient corrections 
 use of overlap-Matrix (Vanderbilt PP)
 Gauss-broadening in eV      SIGMA  =   0.05


--------------------------------------------------------------------------------------------------------


  energy-cutoff  :      400.00
  volume of cell :       50.01
      direct lattice vectors                 reciprocal lattice vectors
     5.430000000  0.000000000  0.000000000     0.184197310  0.184197310  0.000000000
     0.000000000  5.430000000  0.000000000     0.000000000  0.184197310  0.184197310
     0.000000000  0.000000000  5.430000000     0.184197310  0.000000000  0.184197310

  length of vectors
     5.430000000  5.430000000  5.430000000     0.260446442  0.260446442  0.260446442


 
 k-points in units of 2pi/SCALE and weight: automatic mesh                    
   0.01840494  0.01840494  0.01840494       0.031
   0.05521482  0.01840494  0.01840494       0.094
   0.09202470  0.01840494  0.01840494       0.094
   0.12883458  0.01840494  0.01840494       0.094
   0.05521482  0.05521482  0.01840494       0.094
   0.09202470  0.05521482  0.01840494       0.188
   0.12883458  0.05521482  0.01840494       0.188
   0.09202470  0.09202470  0.01840494       0.094
   0.12883458  0.09202470  0.01840494       0.188
   0.12883458  0.12883458  0.01840494       0.031
 
 k-points in reciprocal lattice and weights: automatic mesh                    
   0.06250000  0.06250000  0.06250000       0.031
   0.18750000  0.06250000  0.06250000       0.094
   0.31250000  0.06250000  0.06250000       0.094
   0.43750000  0.06250000  0.06250000       0.094
   0.18750000  0.18750000  0.06250000       0.094
   0.31250000  0.18750000  0.06250000       0.188
   0.43750000  0.18750000  0.06250000       0.188
   0.31250000  0.31250000  0.06250000       0.094
   0.43750000  0.31250000  0.06250000       0.188
   0.43750000  0.43750000  0.06250000       0.031
 
 position of ions in fractional coordinates (direct lattice) 
   0.00000000  0.00000000  0.00000000
   0.25000000  0.25000000  0.25000000
 
 position of ions in cartesian coordinates  (Angst):
   0.00000000  0.00000000  0.00000000
   1.35750000  1.35750000  1.35750000
 


--------------------------------------------------------------------------------------------------------


 
  FORCE on cell =-STRESS in cart. coord.  units (eV):
  Direction    XX          YY          ZZ          XY          YZ          ZX
  --------------------------------------------------------------------------------------
  Alpha Z     8.00000     8.00000     8.00000
  Ewald      48.35282    48.35282    48.35282    -0.00000     0.00000     0.00000
  Hartree    50.87234    50.87234    50.87234     0.00000    -0.00000     0.00000
  E(xc)     -15.34821   -15.34821   -15.34821     0.00000     0.00000    -0.00000
  Local    -114.52108  -114.52108  -114.52108    -0.00000     0.00000    -0.00000
  n-local   -10.32156   -10.32156   -10.32156    -0.00000    -0.00000    -0.00000
  augment     6.54321     6.54321     6.54321     0.00000     0.00000     0.00000
  Kinetic    26.55418    26.55418    26.55418    -0.00000    -0.00000    -0.00000
  Fock        0.00000     0.00000     0.00000     0.00000     0.00000     0.00000
  -------------------------------------------------------------------------------------
  Total       0.00001     0.00001     0.00001     0.00000     0.00000     0.00000
  in kB       0.00000     0.00000     0.00000     0.00000     0.00000     0.00000
  external pressure =        0.00 kB  Pullay stress =        0.00 kB


 VOLUME and BASIS-vectors are now :
 -----------------------------------------------------------------------------
  energy-cutoff  :      400.00
  volume of cell :       50.01
      direct lattice vectors                 reciprocal lattice vectors
     5.430000000  0.000000000  0.000000000     0.184197310  0.184197310  0.000000000
     0.000000000  5.430000000  0.000000000     0.000000000  0.184197310  0.184197310
     0.000000000  0.000000000  5.430000000     0.184197310  0.000000000  0.184197310

  length of vectors
     5.430000000  5.430000000  5.430000000     0.260446442  0.260446442  0.260446442


 FORCES acting on ions:
    Electron-Ion                     Ewald-Force                    Non-Local-Force
 -----------------------------------------------------------------------------------------------
   0.000E+00   0.000E+00   0.000E+00   0.000E+00   0.000E+00   0.000E+00   0.000E+00   0.000E+00   0.000E+00
   0.000E+00   0.000E+00   0.000E+00   0.000E+00   0.000E+00   0.000E+00   0.000E+00   0.000E+00   0.000E+00
 -----------------------------------------------------------------------------------------------
   0.000E+00   0.000E+00   0.000E+00   0.000E+00   0.000E+00   0.000E+00   0.000E+00   0.000E+00   0.000E+00
 
 
 POSITION                                       TOTAL-FORCE (eV/Angst)
 -----------------------------------------------------------------------------------
      0.00000      0.00000      0.00000         0.000000      0.000000      0.000000
      1.35750      1.35750      1.35750         0.000000      0.000000      0.000000
 -----------------------------------------------------------------------------------
    total drift:                                0.000000      0.000000      0.000000


--------------------------------------------------------------------------------------------------------



  FREE ENERGIE OF THE ION-ELECTRON SYSTEM (eV)
  ---------------------------------------------------
  free  energy   TOTEN  =       -10.85023400 eV

  energy  without entropy=      -10.85023400  energy(sigma->0) =      -10.85023400


--------------------------------------------------------------------------------------------------------


    POTLOK:  cpu time    0.1287: real time    0.1289


--------------------------------------------------------------------------------------------------------


 writing wavefunctions