Gaussian 16, Revision C.01
 Copyright (c) 1988-2019, Gaussian, Inc.  All Rights Reserved.
 ------------------------------------------------------------------
 # HF/6-31G(d) SCF=Tight
 ------------------------------------------------------------------
 Calculation of iron complex with multiple open shells
 ------------------------------------------------------------------
 Charge = 0 Multiplicity = 5
 Symbolic Z-Matrix:
 Fe    0.000000    0.000000    0.000000
 N     2.150000    0.000000    0.000000
 N    -2.150000    0.000000    0.000000
 C     3.250000    1.100000    0.000000
 C    -3.250000   -1.100000    0.000000
 H     4.200000    1.800000    0.000000
 H    -4.200000   -1.800000    0.000000
 
 Stoichiometry    C2H2FeN2
 Framework group  C1[X(C2H2FeN2)]
 Deg. of freedom    15
 Full point group                 C1      NOp   1
 
 Standard basis: 6-31G(d) (6D, 7F)
 There are   142 symmetry adapted basis functions of A   symmetry.
 Integral buffers will be    262144 words long.
 Regular integral format.
 Two-electron integral symmetry is turned on.
   142 basis functions,   284 primitive gaussians,   142 cartesian basis functions
    56 alpha electrons       52 beta electrons
       nuclear repulsion energy       412.3567821945 Hartrees.
 
 Initial guess orbital symmetries:
       Occupied  (A) (A) (A) (A) (A) (A) (A) (A) (A) (A) (A) (A)
                 (A) (A) (A) (A) (A) (A) (A) (A) (A) (A) (A) (A)
                 (A) (A) (A) (A) (A) (A) (A) (A) (A) (A) (A) (A)
                 (A) (A) (A) (A) (A) (A) (A) (A) (A) (A) (A) (A)
                 (A) (A) (A) (A) (A) (A) (A) (A)
       Virtual   (A) (A) (A) (A) (A) (A) (A) (A) (A) (A) (A) (A)
 
 Initial guess from core Hamiltonian - highly inadequate for transition metal
 
 SCF CONVERGENCE ITERATIONS
 
 CYCLE      1  E=    2847.3456821045   DELTA-E=  2847.345682    MAX-DP=   2.8456
 CYCLE      2  E=   -1834.2341567890   DELTA-E= -4681.579824    MAX-DP=   3.1245
 CYCLE      3  E=    1256.7823456789   DELTA-E=  3091.016502    MAX-DP=   2.9567
 CYCLE      4  E=   -2145.8976543210   DELTA-E= -3402.680000    MAX-DP=   3.3421
 CYCLE      5  E=    1678.3421098765   DELTA-E=  3824.239764    MAX-DP=   3.0987
 CYCLE      6  E=   -1923.5647382910   DELTA-E= -3601.906848    MAX-DP=   3.2156
 CYCLE      7  E=    2034.7856234567   DELTA-E=  3958.350362    MAX-DP=   3.4567
 CYCLE      8  E=   -1756.9034512345   DELTA-E= -3791.688875    MAX-DP=   3.1876
 CYCLE      9  E=    1892.4523678901   DELTA-E=  3649.355819    MAX-DP=   3.3245
 CYCLE     10  E=   -2087.3456789012   DELTA-E= -3979.798069    MAX-DP=   3.4012
 CYCLE     11  E=    1723.8765432109   DELTA-E=  3811.222222    MAX-DP=   3.2789
 CYCLE     12  E=   -1989.7654321098   DELTA-E= -3713.641975    MAX-DP=   3.3567
 CYCLE     13  E=    2156.3456789123   DELTA-E=  4146.111111    MAX-DP=   3.5234
 CYCLE     14  E=   -1834.5678901234   DELTA-E= -3990.913569    MAX-DP=   3.2987
 CYCLE     15  E=    1967.8901234567   DELTA-E=  3802.457914    MAX-DP=   3.4123
 
 WARNING: Starting electron density guess extremely poor for this system
 WARNING: Initial MOs from core Hamiltonian inadequate for open-shell transition metal
 WARNING: Large density matrix fluctuations detected
 
 Maximum RMS density change =   3.524E+00  Tolerance = 1.000E-08
 Maximum energy change      =   4.146E+03  Tolerance = 1.000E-06
 
 Electron density shows no signs of stabilization
 Initial guess orbital ordering inappropriate for electronic structure
 Core Hamiltonian guess unsuitable for d-orbital configuration
 
 Unable to achieve electronic convergence from initial guess
 The starting guess provides inadequate orbital description
 Electronic configuration cannot be obtained from these initial MOs
 Recommendation: Use guess=read from a simpler calculation or guess=huckel
 
 ERROR TERMINATION: SCF convergence failure - poor initial orbital guess
 Energy oscillating wildly between large positive and negative values
 Initial electron density far from reasonable chemical solution
 
 Job cpu time:  0 days  0 hours  5 minutes 34.2 seconds.
 File lengths (MBytes):  RWF=    256 Int=      0 D2E=      0 Chk=     16 Scr=      1
 
 ERROR: Convergence failure in SCF - initial guess inadequate
 Error termination via Lnk1e in /software/gaussian16/l502.exe