Gaussian 16, Revision C.01
Copyright (c) 1988-2019, Gaussian, Inc.  All Rights Reserved.

******************************************************
#P B3LYP/6-31G(d) SCF=Tight

Organic molecule optimization - Job 007

******************************************************
Symbolic Z-matrix:
Charge = 0 Multiplicity = 1
C                  0.00000   0.00000   0.00000
C                  1.52000   0.00000   0.00000
O                  2.15000   1.18000   0.00000
H                 -0.42000  -0.51000   0.89000
H                 -0.42000  -0.51000  -0.89000
H                 -0.42000   1.02000   0.00000
H                  1.92000  -0.51000   0.89000
H                  1.92000  -0.51000  -0.89000
H                  2.89000   1.15000   0.65000

GradGradGradGradGradGradGradGradGradGradGradGradGrad
Berny optimization.
Initialization pass.
Trust Radius=3.00D-01 FncErr=1.00D-07 GrdErr=1.00D-07
Number of steps in this run=   100 maximum allowed number of steps=    100.

                         Standard orientation:
---------------------------------------------------------------------
 Center     Atomic      Atomic             Coordinates (Angstroms)
 Number     Number       Type             X           Y           Z
---------------------------------------------------------------------
      1          6           0        0.000000    0.000000    0.000000
      2          6           0        1.520000    0.000000    0.000000
      3          8           0        2.150000    1.180000    0.000000
      4          1           0       -0.420000   -0.510000    0.890000
      5          1           0       -0.420000   -0.510000   -0.890000
      6          1           0       -0.420000    1.020000    0.000000
      7          1           0        1.920000   -0.510000    0.890000
      8          1           0        1.920000   -0.510000   -0.890000
      9          1           0        2.890000    1.150000    0.650000
---------------------------------------------------------------------

Standard basis: 6-31G(d) (6D, 7F)
There are   108 symmetry adapted cartesian basis functions of A   symmetry.
There are   106 symmetry adapted basis functions of A   symmetry.
   106 basis functions,   168 primitive gaussians,   108 cartesian basis functions
    13 alpha electrons       13 beta electrons

Requested convergence on RMS density matrix=1.00D-08 within 128 cycles.
Requested convergence on MAX density matrix=1.00D-06.
Requested convergence on energy=1.00D-06.

SCF Done:  Initial pass  E(RB3LYP) =  -45.8923618420     A.U.

CAUTION: Initial electron density guess appears inadequate
         Attempting SCF convergence from poor starting conditions

 Cycle   1  Energy= -48.2156934821    dE=-2.35     dRMS=8.24D-01    dMax=9.81D-01
 Cycle   2  Energy= -52.9847231056    dE=-4.77     dRMS=7.92D-01    dMax=8.54D-01
 Cycle   3  Energy= -49.1234567891    dE= 3.86     dRMS=6.45D-01    dMax=7.23D-01
 Cycle   4  Energy= -53.8765432109    dE=-4.75     dRMS=7.18D-01    dMax=8.91D-01
 Cycle   5  Energy= -47.2345678901    dE= 6.64     dRMS=8.87D-01    dMax=9.45D-01
 Cycle   6  Energy= -51.9876543210    dE=-4.75     dRMS=7.56D-01    dMax=8.78D-01
 Cycle   7  Energy= -48.7654321098    dE= 3.22     dRMS=6.89D-01    dMax=7.67D-01
 Cycle   8  Energy= -54.3456789012    dE=-5.58     dRMS=8.12D-01    dMax=9.23D-01
 Cycle   9  Energy= -46.8901234567    dE= 7.46     dRMS=9.34D-01    dMax=9.89D-01
 Cycle  10  Energy= -52.4567890123    dE=-5.57     dRMS=7.91D-01    dMax=8.67D-01
 Cycle  11  Energy= -48.1234567890    dE= 4.33     dRMS=6.78D-01    dMax=7.45D-01
 Cycle  12  Energy= -55.7890123456    dE=-7.67     dRMS=8.89D-01    dMax=9.67D-01
 Cycle  13  Energy= -45.6789012345    dE=10.11     dRMS=9.87D-01    dMax=9.99D-01
 Cycle  14  Energy= -53.2345678901    dE=-7.56     dRMS=8.23D-01    dMax=9.12D-01
 Cycle  15  Energy= -47.5678901234    dE= 5.67     dRMS=7.34D-01    dMax=8.23D-01
 Cycle  16  Energy= -54.8901234567    dE=-7.32     dRMS=8.67D-01    dMax=9.45D-01
 Cycle  17  Energy= -46.2345678901    dE= 8.66     dRMS=9.12D-01    dMax=9.78D-01
 Cycle  18  Energy= -52.7890123456    dE=-6.55     dRMS=8.01D-01    dMax=8.89D-01
 Cycle  19  Energy= -48.9012345678    dE= 3.89     dRMS=6.67D-01    dMax=7.56D-01
 Cycle  20  Energy= -55.1234567890    dE=-6.22     dRMS=8.45D-01    dMax=9.34D-01

ERROR: Unable to determine reasonable electronic structure
SCF convergence failure - bad starting guess
Initial guess inadequate for this molecular system

Maximum density change=  9.78D-01
RMS density change=      8.45D-01

Recommendation: Try using GUESS=READ from a simpler calculation
                or use STABLE=OPT to find better initial orbitals
                Consider using GUESS=HUCKEL or GUESS=INDO

>>>>>>>>>> Convergence criterion not met.
SCF Done:  E(RB3LYP) did not converge
Convergence failure -- run terminated.

Error termination via Lnk1e
Job cpu time:       0 days  0 hours  5 minutes 42.3 seconds.
File lengths (MBytes):  RWF=     18 Int=      0 D2E=      0 Chk=      8 Scr=      1