Entering Gaussian System, Link 0=g16
Initial command:
# B3LYP/6-311++G(3df,3pd) SCF=Tight

 Gaussian 16:  ES64L-G16RevC.01  3-Jul-2019
                15-Mar-2023 
 %mem=16GB
 %nprocshared=8
 Will use up to    8 processors via shared memory.
 -----------------------------------------------------------
 # B3LYP/6-311++G(3df,3pd) SCF=Tight Opt
 -----------------------------------------------------------
 1/38=1/1;
 2/12=2,17=6,18=5,40=1/2;
 3/5=4,6=6,7=1111,11=2,25=1,30=1,74=-5/1,2,3;
 4//1;
 5/5=2,38=5/2;
 6/7=2,8=2,9=2,10=2,28=1/1;
 99/5=1,9=1/99;
 -----------------------------------
 Water dimer with very diffuse basis
 -----------------------------------
 Symbolic Z-matrix:
 Charge =  0 Multiplicity = 1
 O                     0.        0.        0. 
 H                     0.95721   0.        0. 
 H                    -0.23988   0.92711   0. 
 O                     3.        0.        0. 
 H                     3.95721   0.        0. 
 H                     2.76012   0.92711   0. 
 
                          Input orientation:                          
 ---------------------------------------------------------------------
 Center     Atomic      Atomic             Coordinates (Angstroms)
 Number     Number       Type             X           Y           Z
 ---------------------------------------------------------------------
      1          8           0        0.000000    0.000000    0.000000
      2          1           0        0.957210    0.000000    0.000000
      3          1           0       -0.239880    0.927110    0.000000
      4          8           0        3.000000    0.000000    0.000000
      5          1           0        3.957210    0.000000    0.000000
      6          1           0        2.760120    0.927110    0.000000
 ---------------------------------------------------------------------
 Stoichiometry    H4O2
 Framework group  CS[SG(H4O2)]
 Deg. of freedom     9
 Full point group                 CS      NOp   2
 Standard basis: 6-311++G(3df,3pd) (5D, 7F)
 Total number of primitive gaussians:     208
 Total number of contracted basis functions: 168
 Total number of cartesian basis functions:  204
 Total number of spherical basis functions:  168
    168 basis functions,   252 primitive gaussians,   204 cartesian basis functions
      10 alpha electrons       10 beta electrons
       nuclear repulsion energy        36.5592841776 Hartrees.
 NAtoms=    6 NActive=    6 NUniq=    6 SFac= 1.00D+00 NAtFMM=   60 NAOKFM=F Big=F
 Integral buffers will be    131072 words long.
 Regular integral format.
 Two-electron integral symmetry is turned on.
 One-electron integrals computed using PRISM.
 NBasis=   168 RedAO= T EigKep=  4.29D-05  NBF=   168
 NBsUse=   168 1.00D-06 EigRej= -1.00D+00 NBFU=   168

 WARNING: Eigenvalues of the overlap matrix are very small!
 Smallest eigenvalue of overlap matrix: 8.4231D-11

 Linear dependency detected in basis set.
 *** WARNING: Number of linearly-dependent basis functions (NBasis - NIndepA): 14 ***
 
 Overlap matrix eigenvalues (showing smallest 20):
   8.42D-11  1.23D-10  2.47D-10  3.89D-10  5.14D-10
   7.45D-10  9.82D-10  1.34D-09  2.17D-09  3.56D-09
   5.23D-09  8.91D-09  1.47D-08  2.34D-08  4.12D-08
   6.78D-08  9.45D-08  1.23D-07  2.01D-07  3.45D-07

 Removing 14 linearly dependent basis functions to improve numerical stability.
 Using reduced basis set with 154 basis functions.

 Requested convergence on RMS density matrix=1.00D-08 within 128 cycles.
 Requested convergence on MAX density matrix=1.00D-06.
 Requested convergence on             energy=1.00D-06.
 No special actions if energy rises.
 Keep R1 ints in memory in canonical form, NReq=382446655.
 SCF Done:  E(RB3LYP) =  -152.109847241     A.U. after   28 cycles
            NFock= 28  Conv=0.41D-03     -V/T= 2.0043
 Range of M.O.s used for correlation:     1   154
 NBasis=   154 NAE=    10 NBE=    10 NFC=     0 NFV=     0

 *** ERROR: SCF convergence achieved but with severe numerical instability ***
 *** Linear dependent basis functions detected ***
 *** Overlap matrix condition number: 1.83D+10 ***
 *** This may lead to unreliable results ***
 *** Reduce basis set size or remove diffuse functions ***

 Error termination request processed by link 9999.
 Error termination via Lnk1e in /software/gaussian/g16/l502.exe