Gaussian 16, Revision C.01
Copyright (c) 1988-2019, Gaussian, Inc.
All Rights Reserved.

This is part of the Gaussian(R) 16 program.

%chk=calc_011.chk
%mem=8GB
%nproc=4

Will use up to 4 processors via shared memory.

# wB97XD/6-311+G(d,p) opt scf=maxcycle=128

Molecular geometry optimization with range-separated functional

0 1
C       -0.00000000    0.00000000    0.00000000
C        1.39844500    0.00000000    0.00000000
C        2.09766700    1.21248900    0.00000000
C        1.39844500    2.42497800    0.00000000
C       -0.00000000    2.42497800    0.00000000
C       -0.69922200    1.21248900    0.00000000
H       -0.54502700   -0.94301300    0.00000000
H        1.94347200   -0.94301300    0.00000000
H        3.18769400    1.21248900    0.00000000
H        1.94347200    3.36799100    0.00000000
H       -0.54502700    3.36799100    0.00000000
H       -1.78924900    1.21248900    0.00000000

Symbolic Z-matrix:
Charge =  0 Multiplicity = 1

Distance matrix (angstroms):
...

GradGradGradGradGradGradGradGradGradGradGradGradGradGradGradGradGradGrad
Berny optimization.
Initialization pass.
Trust Radius=3.00D-01 FncErr=1.00D-07 GrdErr=1.00D-07 EigMax=2.50D+02 EigMin=1.00D-04

Initial Parameters
...

SCF Convergence:
===================================

Cycle   1  E= -232.1847562341    Delta-E=  0.000000000000    Rises=F Damp=F
DIIS: error= 2.84D-02 at cycle   1
 Coarse grid integration. 
 Grid spacing set to    0.550 Bohr.
 Grid points:    12874

Cycle   2  E= -232.2145839462    Delta-E= -0.029827712100    Rises=F Damp=F
DIIS: error= 1.92D-02 at cycle   2

Cycle   3  E= -232.2398471829    Delta-E= -0.025263236700    Rises=F Damp=F
DIIS: error= 8.41D-03 at cycle   3

Cycle   4  E= -232.2456238193    Delta-E= -0.005776636400    Rises=F Damp=F
DIIS: error= 4.29D-03 at cycle   4

Cycle   5  E= -232.2471584962    Delta-E= -0.001534676900    Rises=F Damp=F
DIIS: error= 2.18D-03 at cycle   5

Cycle   6  E= -232.2479324847    Delta-E= -0.000773988500    Rises=F Damp=F
DIIS: error= 8.92D-04 at cycle   6

Switching to fine grid for DFT integration.
Warning: Grid pruning may be inadequate for this system.
Attempting finer quadrature grid.
 Fine grid spacing set to    0.330 Bohr.
 Grid points:    45128

Cycle   7  E= -232.2518476291    Delta-E= -0.003915144400    Rises=F Damp=F
DIIS: error= 5.14D-04 at cycle   7

Cycle   8  E= -232.2463821547    Delta-E=  0.005465474400    Rises=T Damp=T
DIIS: error= 6.83D-04 at cycle   8

Warning: Energy discontinuity detected during grid transition.
Warning: Numerical integration accuracy compromised.

Cycle   9  E= -232.2506192384    Delta-E= -0.004237083700    Rises=F Damp=F
DIIS: error= 3.76D-04 at cycle   9

Cycle  10  E= -232.2498731562    Delta-E=  0.000746082200    Rises=T Damp=T
DIIS: error= 4.21D-04 at cycle  10

Warning: Integration grid transition causing SCF instability.
Warning: DFT grid problem - energy not smooth across grid refinement.

Cycle  11  E= -232.2511384729    Delta-E= -0.001265316700    Rises=F Damp=F
DIIS: error= 2.89D-04 at cycle  11

Cycle  12  E= -232.2507219483    Delta-E=  0.000416524600    Rises=T Damp=T
DIIS: error= 3.14D-04 at cycle  12

Error: Grid construction produced discontinuous energy surface.
Error: Numerical integration grid too coarse for accurate convergence.
Error: Integration accuracy insufficient for wB97XD functional.

Recommendation: Use 'int=ultrafine' or 'int=superfine' grid.
Recommendation: Increase radial and angular grid points.

>>>>>>>>>> Convergence criterion not met.
SCF Done:  E(RwB97XD) =  -232.250711948     A.U. after   12 cycles
           NFock= 12  Conv=0.00D+00     -V/T= 2.0098
           KE= 2.311847362957D+02 PE=-6.842917453821D+02 EE= 1.894328476492D+02

Error termination via Lnk1e in /opt/gaussian/g16/l502.exe

Job cpu time:       0 days  0 hours  8 minutes 47.2 seconds.
File lengths (MBytes):  RWF=     18 Int=      0 D2E=      0 Chk=      8 Scr=      1