Gaussian 16, Revision C.01
Copyright (c) 1988-2019, Gaussian, Inc.
All Rights Reserved.

This is part of the Gaussian(R) 16 program.

******************************************
Gaussian 16:  ES64L-G16RevC.01
******************************************
%chk=calc_001.chk
%mem=8GB
%nprocshared=4
Will use up to 4 processors via shared memory.
-------------------------------------
# HF/6-31G(d) SCF=Tight Test
-------------------------------------

Molecular geometry (Angstroms):
C          0.000000    0.000000    0.000000
C          1.400000    0.000000    0.000000
H          -0.520000   0.900000    0.000000
H          -0.520000  -0.900000    0.000000
H          1.920000    0.900000    0.000000
H          1.920000   -0.900000    0.000000

Charge =  0 Multiplicity = 1

Basis set information:
Standard basis: 6-31G(d) (6D, 7F)
44 basis functions, 72 primitive gaussians

SCF Convergence Criteria:
Energy:    1.00D-08
Density:   1.00D-06
Maximum number of cycles: 128

Initial guess: Harris functional approach

SCF Iteration Log:
                    Energy        Delta-E       RMS-Dens      Max-Dens
Cycle   1:     -156.42891034   -156.428910    0.85423012    2.14523456
Cycle   2:      -42.18793421    114.240976    1.24356789    3.89245612
Cycle   3:     -198.73456123   -156.546628    0.98765432    2.56781234
Cycle   4:      -89.45612378    109.278438    1.45678901    4.12345678
Cycle   5:     -221.98734561   -132.531222    0.76543210    1.98765432
Cycle   6:      -67.23498765    154.752358    1.67890123    5.23456789
Cycle   7:     -245.67890123   -178.444014    0.54321098    1.45678901
Cycle   8:      -51.89012345    193.788778    1.89012345    6.78901234
Cycle   9:     -267.34567890   -215.455556    0.34567890    0.98765432
Cycle  10:      -38.76543210    228.580247    2.10987654    7.89012345
Cycle  11:     -289.01234567   -250.246914    0.21098765    0.67890123
Cycle  12:      -29.87654321    259.136102    2.34567890    8.90123456
Cycle  13:     -310.65432109   -280.777778    0.12345678    0.45678901
Cycle  14:      -22.98765432    287.666667    2.56789012    9.87654321
Cycle  15:     -332.19876543   -309.211111    0.09876543    0.34567890
Cycle  16:      -17.34567890    314.853086    2.78901234   10.76543210
Cycle  17:     -353.76543210   -336.419753    0.07654321    0.23456789
Cycle  18:      -13.45678901    340.308642    2.98765432   11.65432109
Cycle  19:     -375.23456789   -361.777778    0.05432109    0.15678901
Cycle  20:      -10.12345678    365.111111    3.19876543   12.54321098

WARNING: SCF energy oscillating wildly with no systematic decrease
WARNING: Initial guess may be inadequate for this system
WARNING: Consider using Guess=Read or Guess=Core

Cycle  21:     -396.78901234   -386.666667    0.03456789    0.09876543
Cycle  22:       -7.89012345    388.899012    3.40987654   13.43210987
Cycle  23:     -418.34567890   -410.455556    0.02345678    0.06543210
Cycle  24:       -5.98765432    412.358025    3.62098765   14.32109876
Cycle  25:     -439.87654321   -433.888889    0.01543210    0.04321098

>>>>>>>>>> Convergence criterion not met.
>>>>>>>>>> SCF has not converged.

Error termination via Lnk1e in /opt/gaussian/g16/l502.exe
Job cpu time:       0 days  0 hours  3 minutes 42.5 seconds.
File lengths (MBytes):  RWF=      12 Int=       0 D2E=       0 Chk=       8 Scr=       1

Error: Unable to determine electronic structure - initial guess energy too high
Error: Poor initial guess preventing SCF convergence
Error: The starting electron density is inadequate for this molecular system

Recommendation: Try alternative guess methods:
  - Guess=Core (core Hamiltonian)
  - Guess=Huckel (extended Huckel)
  - Guess=Read (from previous calculation)
  - Consider using a minimal basis set first, then upgrading

Normal termination aborted.
Error termination request processed by link 9999.