vasp.6.3.0 27Feb22 (build Aug 23 2022 13:01:13) complex
 
 executed on LinuxIFC date 2024.01.15  09:30:45
 running on   16 total cores
 distrk:  each k-point on   16 cores,    1 groups
 distr:  one band on NCORE=   1 cores,   16 groups


--------------------------------------------------------------------------------------------------------


 INCAR:
   PREC = Accurate
   ENCUT = 600.0
   EDIFF = 1.0e-06
   ISMEAR = 0
   SIGMA = 0.05
   IBRION = -1
   NSW = 0
   LREAL = .FALSE.
   LWAVE = .FALSE.
   LCHARG = .FALSE.

 POTCAR:    PAW_PBE Si 05Jan2001                   
   TITEL  = PAW_PBE Si 05Jan2001
   LEXCH  = PE
   VRHFIN =Si: s2p2
   ZVAL   =  4.0
   POMASS =  28.085
   RCORE  =  1.900
   RWIGS  =  2.480

 POSCAR:  Si2 bulk                                
  Si                                      
    2
 Direct
  0.00000000  0.00000000  0.00000000
  0.25000000  0.25000000  0.25000000

   ions per type =               2
 
 Dimension of arrays:
   k-Points           NKPTS =      8
   number of ions     NIONS =      2
   number of bands    NBANDS=     12
   number of dos      NEDOS =    301
   
 
 SYSTEM = Si bulk calculation

 
 Startparameter for this run:
   NWRITE =      2    write-flag & timer
   PREC   = accura    normal or accurate (medium, high low for compatibility)
   ISTART =      0    job   : 0-new  1-cont  2-samecut
   ICHARG =      2    charge: 1-file 2-atom 10-const
   ISPIN  =      1    spin polarized calculation?
   LNONCOLLINEAR =      F non collinear calculations
   INIWAV =      1    electr: 0-lowe 1-rand  2-diag
   ENCUT  =  600.0 eV
   NELM   =     60;   NELMIN=  2; NELMDL= -5     # of ELM steps 
   EDIFF  = 0.1E-05   stopping-criterion for ELM
   LREAL  =      F    real-space projection
 
   Ionic relaxation
   EDIFFG = 0.1E-05   stopping-criterion for IOM
   NSW    =      0    number of steps for IOM
   IBRION =     -1    ionic relax: 0-MD 1-quasi-New 2-CG

   Exchange correlation treatment:
   GGA    =     PE    GGA type
   
 k-points in reciprocal lattice and weights: automatic mesh                     
     8 k-points
   0.12500000  0.12500000  0.12500000       0.125
   0.37500000  0.12500000  0.12500000       0.125
   0.37500000  0.37500000  0.12500000       0.125
   0.12500000  0.37500000  0.12500000       0.125
   0.12500000  0.12500000  0.37500000       0.125
   0.37500000  0.12500000  0.37500000       0.125
   0.37500000  0.37500000  0.37500000       0.125
   0.12500000  0.37500000  0.37500000       0.125

 position of ions in fractional coordinates (direct lattice) 
   0.00000000  0.00000000  0.00000000
   0.25000000  0.25000000  0.25000000
 
--------------------------------------------------------------------------------------------------------

 k-point     1 :       0.1250    0.1250    0.1250
  band No.  band energies     occupation 
      1      -5.8426       2.00000
      2       1.8245       2.00000
      3       1.8245       2.00000
      4       1.8245       2.00000
      5       4.2156       0.00000
      6       4.2156       0.00000
      7       4.2156       0.00000
      8       5.8923       0.00000
      9       5.8923       0.00000
     10       5.8923       0.00000
     11       7.4521       0.00000
     12       7.4521       0.00000

 
--------------------------------------------------------------------------------------------------------


 soft charge-density along one line, spin component           1
         0         1         2         3         4         5         6         7         8         9
 total charge-density along one line
 
 pseudopotential strength for first ion, spin component:           1
 23.456  24.789  -0.001   0.000   0.000  -0.001   0.000   0.000
 24.789  26.234  -0.001   0.000   0.000  -0.001   0.000   0.000
 -0.001  -0.001  -5.678   0.000   0.000  -7.234   0.000   0.000
  0.000   0.000   0.000  -5.678   0.000   0.000  -7.234   0.000
  0.000   0.000   0.000   0.000  -5.678   0.000   0.000  -7.234

 
 total amount of memory used by VASP on root node    45678 kBytes
========================================================================

 
   INCAR:
 POTCAR:    PAW_PBE Si 05Jan2001                   
 
--------------------------------------------------------------------------------------------------------

 
   ALGORITHM = Normal (blocked Davidson)
   LDIAG     = T      (sub-space diagonalisation)

 
 charge density and potential will be updated during run
 non-spin polarized calculation
 
 
--------------------------------------------------------------------------------------------------------

 
  energy-cutoff  :      600.00
  volume of cell :       40.04
      direct lattice vectors                 reciprocal lattice vectors
     3.840000000  0.000000000  0.000000000     0.260416667  0.000000000  0.000000000
     0.000000000  3.840000000  0.000000000     0.000000000  0.260416667  0.000000000
     0.000000000  0.000000000  3.840000000     0.000000000  0.000000000  0.260416667

  length of vectors
     3.840000000  3.840000000  3.840000000     0.260416667  0.260416667  0.260416667

 
 FORCES acting on ions:
    Electron-Ion                     Ewald-Force                    Non-Local-Force
 -----------------------------------------------------------------------------------------------
   0.000E+00   0.000E+00   0.000E+00   0.000E+00   0.000E+00   0.000E+00   0.000E+00   0.000E+00   0.000E+00
   0.000E+00   0.000E+00   0.000E+00   0.000E+00   0.000E+00   0.000E+00   0.000E+00   0.000E+00   0.000E+00
 -----------------------------------------------------------------------------------------------
   0.000E+00   0.000E+00   0.000E+00   0.000E+00   0.000E+00   0.000E+00   0.000E+00   0.000E+00   0.000E+00
 
 
 POSITION                                       TOTAL-FORCE (eV/Angst)
 -----------------------------------------------------------------------------------
      0.00000      0.00000      0.00000         0.000000      0.000000      0.000000
      0.96000      0.96000      0.96000         0.000000      0.000000      0.000000
 -----------------------------------------------------------------------------------
    total drift:                                0.000000      0.000000      0.000000


--------------------------------------------------------------------------------------------------------



  FREE ENERGIE OF THE ION-ELECTRON SYSTEM (eV)
  ---------------------------------------------------
  free  energy   TOTEN  =       -10.85041800 eV

  energy  without entropy=      -10.85041800  energy(sigma->0) =      -10.85041800
 

 VOLUME and BASIS-vectors are now :
 -----------------------------------------------------------------------------
  energy-cutoff  :      600.00
  volume of cell :       40.04
      direct lattice vectors                 reciprocal lattice vectors
     3.840000000  0.000000000  0.000000000     0.260416667  0.000000000  0.000000000
     0.000000000  3.840000000  0.000000000     0.000000000  0.260416667  0.000000000
     0.000000000  0.000000000  3.840000000     0.000000000  0.000000000  0.260416667

  length of vectors
     3.840000000  3.840000000  3.840000000     0.260416667  0.260416667  0.260416667


 FORCES acting on ions:
    Electron-Ion                     Ewald-Force                    Non-Local-Force
 -----------------------------------------------------------------------------------------------
   0.000E+00   0.000E+00   0.000E+00   0.000E+00   0.000E+00   0.000E+00   0.000E+00   0.000E+00   0.000E+00
   0.000E+00   0.000E+00   0.000E+00   0.000E+00   0.000E+00   0.000E+00   0.000E+00   0.000E+00   0.000E+00
 -----------------------------------------------------------------------------------------------
   0.000E+00   0.000E+00   0.000E+00   0.000E+00   0.000E+00   0.000E+00   0.000E+00   0.000E+00   0.000E+00
 
 
 POSITION                                       TOTAL-FORCE (eV/Angst)
 -----------------------------------------------------------------------------------
      0.00000      0.00000      0.00000         0.000000      0.000000      0.000000
      0.96000      0.96000      0.96000         0.000000      0.000000      0.000000
 -----------------------------------------------------------------------------------
    total drift:                                0.000000      0.000000      0.000000


--------------------------------------------------------------------------------------------------------



 
 CHARGE:  cpu time    0.2345: real time    0.2398
 

 eigenvalues of (default mixing * dielectric matrix)
  average eigenvalue GAMMA=   1.0000
  1.0000

 Free energy of the ion-electron system (eV)
  ---------------------------------------------------
  alpha Z        PSCENC =         1.23456789
  Ewald energy   TEWEN  =      -102.45678901
  -Hartree energ DENC   =       -45.67890123
  -exchange      EXHF   =         0.00000000
  -V(xc)+E(xc)   XCENC  =        12.34567890
  PAW double counting   =       123.45678901  -124.56789012
  entropy T*S    EENTRO =        -0.00123456
  eigenvalues    EBANDS =       -23.45678901
  atomic energy  EATOM  =       148.27056200
  Solvation  Ediel_sol  =         0.00000000
  ---------------------------------------------------
  free energy    TOTEN  =       -10.85041800 eV

  energy without entropy =      -10.85041800  energy(sigma->0) =      -10.85041800


--------------------------------------------------------------------------------------------------------


    POTLOK:  cpu time    0.4523: real time    0.4589
    SETDIJ:  cpu time    0.0234: real time    0.0237
    EDDAV:   cpu time    1.2345: real time    1.2456
       DOS:  cpu time    0.0012: real time    0.0012
    CHARGE:  cpu time    0.2345: real time    0.2398
    MIXING:  cpu time    0.0123: real time    0.0125
    --------------------------------------------
      LOOP:  cpu time    1.9582: real time    1.9817

 eigenvalue-minimisations  :    96
 total energy-change (2. order) :-0.1234567E-06  (-0.2345678E-08)
 number of electron       8.0000000 magnetization 
 augmentation part        8.0000000 magnetization 

 Broyden mixing:
  rms(total) = 0.12345E-05    rms(broyden)= 0.12345E-05
  rms(prec ) = 0.23456E-05
  weight for this iteration     100.00

 Free energy of the ion-electron system (eV)
  ---------------------------------------------------
  alpha Z        PSCENC =         1.23456789
  Ewald energy   TEWEN  =      -102.45678901
  -Hartree energ DENC   =       -45.67890123
  -exchange      EXHF   =         0.00000000
  -V(xc)+E(xc)   XCENC  =        12.34567890
  PAW double counting   =       123.45678901  -124.56789012
  entropy T*S    EENTRO =        -0.00123456
  eigenvalues    EBANDS =       -23.45678901
  atomic energy  EATOM  =       148.27056200
  Solvation  Ediel_sol  =         0.00000000
  ---------------------------------------------------
  free energy    TOTEN  =       -10.85041800 eV

  energy without entropy =      -10.85041800  energy(sigma->0) =      -10.85041800


--------------------------------------------------------------------------------------------------------


 
 
 
 TIMING: 
   Total CPU time used (sec):      123.456
   User time (sec):                122.345
   System time (sec):                1.111
   Elapsed time (sec):             124.567
 
 Maximum memory used (kb):       456789
 Average memory used (kb):       345678
 
                         General timing and accounting informations for this job:
                             Total CPU time used (sec):      123.456
                                         User time (sec):      122.345
                                       System time (sec):        1.111
                                      Elapsed time (sec):      124.567
 
                         Maximum memory used (kb):       456789.
                         Average memory used (kb):       345678.
 
                                    Voluntary context switches:        12345
                                  Involuntary context switches:          123