vasp.6.3.0 24Feb22 (build Aug 18 2022 14:23:45) complex                  
  
 executed on             LinuxIFC date 2024.01.15  10:23:45
 running on   16 total cores
 distrk:  each k-point on   16 cores,    1 groups
 distr:  one band on NCORE=   1 cores,   16 groups


--------------------------------------------------------------------------------------------------------


 INCAR:
   PREC = Accurate
   ENCUT = 250.0
   EDIFF = 1.0e-06
   ISMEAR = 0
   SIGMA = 0.05
   IBRION = -1
   NSW = 0
   LREAL = .FALSE.
   LWAVE = .FALSE.
   LCHARG = .FALSE.

 POTCAR:    PAW_PBE Si 05Jan2001                   
   VRHFIN =Si: s2p2
   LEXCH  = PE
   EATOM  =   103.0669 eV,    7.5752 Ry

   TITEL  = PAW_PBE Si 05Jan2001
   LULTRA =        F    use ultrasoft PP ?
   IUNSCR =        1    unscreen: 0-lin 1-nonlin 2-no
   RPACOR =    1.500    partial core radius
   POMASS =   28.085; ZVAL   =    4.000    mass and valenz
   RCORE  =    1.900    outmost cutoff radius
   RWIGS  =    2.480; RWIGS  =    1.312    wigner-seitz radius (au A)
   ENMAX  =  245.345; ENMIN  =  184.009 eV
   ICORE  =        2    local potential
   LCOR   =        T    correct aug charges
   LPAW   =        T    paw PP
   EAUG   =  322.069
   DEXC   =    -.007
   RMAX   =    2.944    core radius for proj of wfct
   RAUG   =    1.300    factor for augmentation sphere
   RDEP   =    1.993    radius for radial grids
   RDEPT  =    1.837    core radius for aug mesh

 Atomic configuration
  3 entries
     n  l   j            E        occ.
     1  0  0.50     -1785.8828   2.0000
     2  1  0.50      -110.6872   6.0000
     3  2  1.50       -10.3198   2.0000

   Description
     l       E           TYP  RCUT    TYP  RCUT
     0    -10.3198417     23  1.900
     0     81.6349560     23  1.900
     1    -80.5298398     23  1.900
     1     81.6349560     23  1.900
     2      8.1764023     7  1.900


--------------------------------------------------------------------------------------------------------


 k-points in units of 2pi/SCALE and weight: automatic mesh                      
     0.00000000    0.00000000    0.00000000       0.012
     0.00000000    0.00000000    0.25000000       0.012
     0.00000000    0.00000000    0.50000000       0.012
     0.00000000    0.25000000    0.00000000       0.012
     0.00000000    0.25000000    0.25000000       0.024
     0.00000000    0.25000000    0.50000000       0.024
     0.00000000    0.50000000    0.00000000       0.012
     0.00000000    0.50000000    0.25000000       0.024
     0.00000000    0.50000000    0.50000000       0.012
     0.25000000    0.00000000    0.00000000       0.012
     0.25000000    0.00000000    0.25000000       0.024
     0.25000000    0.00000000    0.50000000       0.024
     0.25000000    0.25000000    0.00000000       0.024
     0.25000000    0.25000000    0.25000000       0.048
     0.25000000    0.25000000    0.50000000       0.048
     0.25000000    0.50000000    0.00000000       0.024
     0.25000000    0.50000000    0.25000000       0.048
     0.25000000    0.50000000    0.50000000       0.024
     0.50000000    0.00000000    0.00000000       0.012
     0.50000000    0.00000000    0.25000000       0.024
     0.50000000    0.00000000    0.50000000       0.012
     0.50000000    0.25000000    0.00000000       0.024
     0.50000000    0.25000000    0.25000000       0.048
     0.50000000    0.25000000    0.50000000       0.024
     0.50000000    0.50000000    0.00000000       0.012
     0.50000000    0.50000000    0.25000000       0.024
     0.50000000    0.50000000    0.50000000       0.012

--------------------------------------------------------------------------------------------------------


 POSCAR: Si2 bulk structure                       
  positions in direct lattice
  velocities in cartesian coordinates
  exchange correlation table for  LEXCH =        8
   RHO(1)=    0.500       N(1)  =     2000
   RHO(2)=  100.500       N(2)  =     4000

 ion  position               nearest neighbor table
   1  0.000  0.000  0.000-   2 2.35   2 2.35   2 2.35   2 2.35
   2  0.250  0.250  0.250-   1 2.35   1 2.35   1 2.35   1 2.35


--------------------------------------------------------------------------------------------------------




 KPOINTS: Automatic mesh                          

 Automatic generation of k-mesh.
 Grid dimensions read from file:
 generate k-points for:    4    4    4

 Generating k-lattice:

 Cartesian coordinates                     Fractional coordinates (reciprocal lattice)
    0.154632154    0.000000000    0.000000000     0.250000000    0.000000000    0.000000000
    0.000000000    0.154632154    0.000000000     0.000000000    0.250000000    0.000000000
    0.000000000    0.000000000    0.154632154     0.000000000    0.000000000    0.250000000

 Length of vectors
    0.154632154    0.154632154    0.154632154

 
 k-points in units of 2 pi/SCALE and weight: Automatic mesh                      
   0.00000000  0.00000000  0.00000000       0.016
   0.00000000  0.00000000  0.25000000       0.031
   0.00000000  0.00000000  0.50000000       0.016
   0.00000000  0.25000000  0.00000000       0.031
   0.00000000  0.25000000  0.25000000       0.063
   0.00000000  0.25000000  0.50000000       0.031
   0.00000000  0.50000000  0.00000000       0.016
   0.00000000  0.50000000  0.25000000       0.031
   0.25000000  0.00000000  0.00000000       0.016
   0.25000000  0.00000000  0.25000000       0.063
   0.25000000  0.00000000  0.50000000       0.031
   0.25000000  0.25000000  0.00000000       0.063
   0.25000000  0.25000000  0.25000000       0.125
   0.25000000  0.25000000  0.50000000       0.063
   0.25000000  0.50000000  0.00000000       0.031
   0.25000000  0.50000000  0.25000000       0.063
   0.50000000  0.00000000  0.00000000       0.016
   0.50000000  0.00000000  0.25000000       0.031
   0.50000000  0.25000000  0.00000000       0.031
   0.50000000  0.25000000  0.25000000       0.063
 
 k-points in reciprocal lattice and weights: Automatic mesh                      
   0.00000000  0.00000000  0.00000000       0.016
   0.00000000  0.00000000  0.25000000       0.031
   0.00000000  0.00000000  0.50000000       0.016
   0.00000000  0.25000000  0.00000000       0.031
   0.00000000  0.25000000  0.25000000       0.063
   0.00000000  0.25000000  0.50000000       0.031
   0.00000000  0.50000000  0.00000000       0.016
   0.00000000  0.50000000  0.25000000       0.031
   0.25000000  0.00000000  0.00000000       0.016
   0.25000000  0.00000000  0.25000000       0.063
   0.25000000  0.00000000  0.50000000       0.031
   0.25000000  0.25000000  0.00000000       0.063
   0.25000000  0.25000000  0.25000000       0.125
   0.25000000  0.25000000  0.50000000       0.063
   0.25000000  0.50000000  0.00000000       0.031
   0.25000000  0.50000000  0.25000000       0.063
   0.50000000  0.00000000  0.00000000       0.016
   0.50000000  0.00000000  0.25000000       0.031
   0.50000000  0.25000000  0.00000000       0.031
   0.50000000  0.25000000  0.25000000       0.063

--------------------------------------------------------------------------------------------------------


 Dimension of arrays:
   k-points           NKPTS =     20   k-points in BZ     NKDIM =     20   number of ions     NIONS =      2
   number of core electrons     NELECT =      8.00
   number of bands              NBANDS=     16
   real space projection scheme for non local part
   max number of points:       NRSPLIN=    24
   max number of augmentation charges     NRSPD=    96

 unit cell volume               OMEGA  =    156.3188

 Fermi weights with tetrahedron method with Bloechl corrections


--------------------------------------------------------------------------------------------------------


 energy-cutoff  :      250.00
 volume of cell :      156.32
 direct lattice vectors                 reciprocal lattice vectors
     5.430000000  0.000000000  0.000000000     0.184162062  0.000000000  0.000000000
     0.000000000  5.430000000  0.000000000     0.000000000  0.184162062  0.000000000
     0.000000000  0.000000000  5.430000000     0.000000000  0.000000000  0.184162062

  length of vectors
     5.430000000  5.430000000  5.430000000     0.184162062  0.184162062  0.184162062


 total energy-change (2. order) :-0.1116518E+02  (-0.3229542E+00)
 number of electron       8.0000000 magnetization 
 augmentation part        8.0000000 magnetization 

 Free energy of the ion-electron system (eV)
  ---------------------------------------------------
  alpha Z        PSCENC =         1.08506972
  Ewald energy   TEWEN  =      -164.03386119
  -Hartree energ DENC   =      -366.21654217
  -exchange      EXHF   =         0.00000000
  -V(xc)+E(xc)   XCENC  =        52.56184258
  PAW double counting   =      1128.73421565    -1127.28542148
  entropy T*S    EENTRO =         0.00000000
  eigenvalues    EBANDS =      -146.38951875
  atomic energy  EATOM  =       610.87902855
  ---------------------------------------------------
  free energy    TOTEN  =       -10.81518712 eV

  energy without entropy =      -10.81518712  energy(sigma->0) =      -10.81518712
  exchange ACFDT corr.  =         0.00000000  see jH, gK, PRB 81, 115126


--------------------------------------------------------------------------------------------------------




--------------------------------------------------------------------------------------------------------


    CHARGE:  cpu time    0.0234: real time    0.0246
    FORLOC:  cpu time    0.0145: real time    0.0152
    FORNL :  cpu time    0.0321: real time    0.0336
    STRESS:  cpu time    0.0523: real time    0.0548
    FORHAR:  cpu time    0.0167: real time    0.0175
    MIXING:  cpu time    0.0089: real time    0.0094
    OFIELD:  cpu time    0.0000: real time    0.0000

  FORCE on cell =-STRESS in cart. coord.  units (eV):
  Direction    XX          YY          ZZ          XY          YZ          ZX
  --------------------------------------------------------------------------------------
  Alpha Z     1.08507     1.08507     1.08507
  Ewald      -54.67786   -54.67786   -54.67786    -0.00000    -0.00000    -0.00000
  Hartree    121.96032   121.96032   121.96032     0.00000     0.00000     0.00000
  E(xc)      -40.25614   -40.25614   -40.25614    -0.00000     0.00000    -0.00000
  Local     -184.37826  -184.37826  -184.37826    -0.00000     0.00000    -0.00000
  n-local    -14.23547   -14.23547   -14.23547    -0.00000     0.00000     0.00000
  augment      4.52186     4.52186     4.52186     0.00000     0.00000     0.00000
  Kinetic    166.22587   166.22587   166.22587     0.00000     0.00000     0.00000
  Fock        0.00000     0.00000     0.00000     0.00000     0.00000     0.00000
  -------------------------------------------------------------------------------------
  Total       0.24538     0.24538     0.24538     0.00000     0.00000     0.00000
  in kB       0.00917     0.00917     0.00917     0.00000     0.00000     0.00000
  external pressure =        0.01 kB  Pullay stress =        0.00 kB


 VOLUME and BASIS-vectors are now :
 -----------------------------------------------------------------------------
  energy-cutoff  :      250.00
  volume of cell :      156.32
      direct lattice vectors                 reciprocal lattice vectors
     5.430000000  0.000000000  0.000000000     0.184162062  0.000000000  0.000000000
     0.000000000  5.430000000  0.000000000     0.000000000  0.184162062  0.000000000
     0.000000000  0.000000000  5.430000000     0.000000000  0.000000000  0.184162062

  length of vectors
     5.430000000  5.430000000  5.430000000     0.184162062  0.184162062  0.184162062


 FORCES acting on ions:
    Electron-Ion                     Ewald-Force                    Non-Local-Force
 -----------------------------------------------------------------------------------------------
   0.000E+00   0.000E+00   0.000E+00   0.000E+00   0.000E+00   0.000E+00   0.000E+00   0.000E+00   0.000E+00
   0.000E+00   0.000E+00   0.000E+00   0.000E+00   0.000E+00   0.000E+00   0.000E+00   0.000E+00   0.000E+00
 -----------------------------------------------------------------------------------------------
   0.000E+00   0.000E+00   0.000E+00   0.000E+00   0.000E+00   0.000E+00   0.000E+00   0.000E+00   0.000E+00
 
 
 POSITION                                       TOTAL-FORCE (eV/Angst)
 -----------------------------------------------------------------------------------
      0.00000      0.00000      0.00000         0.000000      0.000000      0.000000
      1.35750      1.35750      1.35750         0.000000      0.000000      0.000000
 -----------------------------------------------------------------------------------
    total drift:                                0.000000      0.000000      0.000000


--------------------------------------------------------------------------------------------------------



  FREE ENERGIE OF THE ION-ELECTRON SYSTEM (eV)
  ---------------------------------------------------
  free  energy   TOTEN  =       -10.82156700 eV

  energy  without entropy=      -10.82156700  energy(sigma->0) =      -10.82156700


--------------------------------------------------------------------------------------------------------


    POTLOK:  cpu time    0.1235: real time    0.1295


--------------------------------------------------------------------------------------------------------


     LOOP+:  cpu time    1.4562: real time    1.5273
    4ORBITALS:  cpu time    0.0000: real time    0.0000

 total amount of memory used by VASP on root node    45632. kBytes
========================================================================

   base      :      30000. kBytes
   nonl-proj :       1234. kBytes
   fftplans  :       3456. kBytes
   grid      :       8912. kBytes
   one-center:         12. kBytes
   HF        :          4. kBytes
   nonlr-proj:        156. kBytes
   wavefun   :       1858. kBytes
 
  
  
 General timing and accounting informations for this job:
 ========================================================
  
                  Total CPU time used (sec):        2.145
                            User time (sec):        1.923
                          System time (sec):        0.222
                         Elapsed time (sec):        2.256
  
                   Maximum memory used (kb):      78234.
                   Average memory used (kb):           0.
  
                          Minor page faults:        12456
                          Major page faults:            0
                 Voluntary context switches:          234