vasp.6.3.0 16Feb22 (build Nov 15 2023 14:23:45) complex                        
  
 executed on             LinuxIFC date 2024.01.15  10:23:45
 running on   16 total cores
 distrk:  each k-point on   16 cores,    1 groups
 distr:  one band on NCORE=   1 cores,   16 groups


--------------------------------------------------------------------------------------------------------


 INCAR:
   PREC = Accurate
   ENCUT = 500.0
   EDIFF = 1.0E-06
   ISMEAR = 0
   SIGMA = 0.05
   NELM = 60
   NSW = 0
   IBRION = -1
   ISIF = 2
   LREAL = .FALSE.
   LWAVE = .FALSE.
   LCHARG = .FALSE.

 POTCAR:    PAW_PBE Si 05Jan2001                   
   VRHFIN =Si: s2p2
   LEXCH  = PE
   EATOM  =   103.0669 eV,    7.5752 Ry

   TITEL  = PAW_PBE Si 05Jan2001
   LULTRA =        F    use ultrasoft PP ?
   IUNSCR =        1    unscreen: 0-lin 1-nonlin 2-no
   RPACOR =    1.500    partial core radius
   POMASS =   28.085; ZVAL   =    4.000    mass and valenz

 POSCAR:    Si2                                   
  positions in cartesian coordinates
  velocities in cartesian coordinates
  No initial velocities read in
 exchange correlation table for  LEXCH =        8
   RHO(1)=    0.500       N(1)  =     2000
   RHO(2)=  100.500       N(2)  =     4000


--------------------------------------------------------------------------------------------------------


 ion  position               nearest neighbor table
   1  0.000  0.000  0.000-   2 2.35
   2  0.250  0.250  0.250-   1 2.35


 k-point  1 :    0.0000 0.0000 0.0000  plane waves:    1651
 k-point  2 :    0.2500 0.0000 0.0000  plane waves:    1642
 k-point  3 :    0.5000 0.0000 0.0000  plane waves:    1639
 k-point  4 :   -0.2500 0.0000 0.0000  plane waves:    1642
 k-point  5 :    0.0000 0.2500 0.0000  plane waves:    1642
 k-point  6 :    0.2500 0.2500 0.0000  plane waves:    1638
 k-point  7 :    0.5000 0.2500 0.0000  plane waves:    1644
 k-point  8 :   -0.2500 0.2500 0.0000  plane waves:    1640

 maximum and minimum number of plane-waves per node :      1651     1638

 maximum number of plane-waves:      1651
 maximum index in each direction: 
   IXMAX=    9   IYMAX=    9   IZMAX=    9
   IXMIN=   -9   IYMIN=   -9   IZMIN=   -9


 serial   3D FFT for wavefunctions
 parallel 3D FFT for charge:
    minimum data set size for parallel FFT to be efficient:   500
 

 total amount of memory used by VASP MPI-rank0    89574. kBytes
=======================================================================

   base      :      30000. kBytes
   nonl-proj :       2145. kBytes
   fftplans  :      12043. kBytes
   grid      :      29834. kBytes
   one-center:         89. kBytes
   wavefun   :      15463. kBytes
 
  
  
 FFT grid for exact exchange (Hartree Fock) 
  NGX =    40; NGY =   40; NGZ =   40

 Optimization of the real space projectors (new method)

 maximal supplied QI-value         = 24.41
 optimisation between [QCUT,QGAM] = [ 10.69, 21.58] = [ 31.66,129.15] Ry 
 Optimized for a Real-space Cutoff    1.44 Angstroem

   l    n(q)    QCUT    max X(q) W(low)/X(q) W(high)/X(q)  e(spline) 
   0      8    10.685    35.290    0.23E-04    0.18E-04    0.79E-07
   1      8    10.685    24.336    0.45E-04    0.35E-04    0.12E-06
   2      8    10.685    10.243    0.45E-04    0.29E-04    0.88E-07
 PAW_PBE Si 05Jan2001                   :
 energy of atom  1       EATOM= -103.0669
 kinetic energy error for atom=    0.0011 (will be added to EATOM!!)
  
 
 POSCAR:    Si2                                   
  positions in cartesian coordinates
  velocities in cartesian coordinates


--------------------------------------------------------------------------------------------------------

 k-point   1 :       0.0000    0.0000    0.0000
 k-point   2 :       0.2500    0.0000    0.0000
 k-point   3 :       0.5000    0.0000    0.0000
 k-point   4 :      -0.2500    0.0000    0.0000
 k-point   5 :       0.0000    0.2500    0.0000
 k-point   6 :       0.2500    0.2500    0.0000
 k-point   7 :       0.5000    0.2500    0.0000
 k-point   8 :      -0.2500    0.2500    0.0000

--------------------------------------------------------------------------------------------------------

 soft charge-density along one line, spin component           1
         0         1         2         3         4         5         6         7         8         9
 total charge-density along one line
 
 pseudopotential strength for first ion, spin component:           1
 10.532  -0.035  -0.000  -0.000  -0.000  -0.000   0.000   0.000
 -0.035  -0.040   0.000   0.000   0.000   0.000  -0.000  -0.000
 -0.000   0.000   3.783   0.000   0.000  -0.289  -0.000  -0.000
 -0.000   0.000   0.000   3.783   0.000  -0.000  -0.289  -0.000
 -0.000   0.000   0.000   0.000   3.783  -0.000  -0.000  -0.289
 -0.000   0.000  -0.289  -0.000  -0.000   0.029   0.000   0.000
  0.000  -0.000  -0.000  -0.289  -0.000   0.000   0.029   0.000
  0.000  -0.000  -0.000  -0.000  -0.289   0.000   0.000   0.029
 total augmentation occupancy for first ion, spin component:           1
  1.721   0.057   0.000   0.000  -0.000   0.002   0.000   0.000
  0.057   0.003   0.000   0.000  -0.000   0.000   0.000   0.000
  0.000   0.000   1.377   0.000   0.000   0.115   0.000   0.000
  0.000   0.000   0.000   1.377   0.000   0.000   0.115   0.000
 -0.000  -0.000   0.000   0.000   1.377   0.000   0.000   0.115
  0.002   0.000   0.115   0.000   0.000   0.011   0.000   0.000
  0.000   0.000   0.000   0.115   0.000   0.000   0.011   0.000
  0.000   0.000   0.000   0.000   0.115   0.000   0.000   0.011


------------------------ aborting loop because EDIFF is reached ----------------------------------------



 CHARGE:  cpu time      0.2245: real time      0.2312
 FORLOC:  cpu time      0.0389: real time      0.0401
 FORNL :  cpu time      0.1823: real time      0.1876
 STRESS:  cpu time      0.8734: real time      0.8991
 FORHAR:  cpu time      0.0845: real time      0.0870
 MIXING:  cpu time      0.0123: real time      0.0127
 OFIELD:  cpu time      0.0000: real time      0.0000

 FORCE on cell =-STRESS in cart. coord.  units (eV):
 Direction    XX          YY          ZZ          XY          YZ          ZX
 --------------------------------------------------------------------------------------
  Alpha Z     0.00000     0.00000     0.00000
  Ewald      73.18648    73.18648    73.18648     0.00000     0.00000     0.00000
  Hartree    79.54328    79.54328    79.54328     0.00000     0.00000     0.00000
  E(xc)     -24.89423   -24.89423   -24.89423     0.00000     0.00000     0.00000
  Local    -193.45679  -193.45679  -193.45679     0.00000     0.00000     0.00000
  n-local   -15.82347   -15.82347   -15.82347     0.00000     0.00000     0.00000
  augment     1.52389     1.52389     1.52389     0.00000     0.00000     0.00000
  Kinetic    79.62478    79.62478    79.62478     0.00000     0.00000     0.00000
  Fock        0.00000     0.00000     0.00000     0.00000     0.00000     0.00000
  -------------------------------------------------------------------------------------
  Total      -0.29606    -0.29606    -0.29606     0.00000     0.00000     0.00000
 in kB       -1.14562    -1.14562    -1.14562     0.00000     0.00000     0.00000
  
 VOLUME and BASIS-vectors are now :
 -----------------------------------------------------------------------------
  energy-cutoff  :      500.00
  volume of cell :       40.89
      direct lattice vectors                 reciprocal lattice vectors
     3.840000000  0.000000000  0.000000000     0.260416667  0.000000000  0.000000000
     0.000000000  3.840000000  0.000000000     0.000000000  0.260416667  0.000000000
     0.000000000  0.000000000  3.840000000     0.000000000  0.000000000  0.260416667

  length of vectors
     3.840000000  3.840000000  3.840000000     0.260416667  0.260416667  0.260416667

  
 
 k-points in units of 2pi/SCALE and weight: automatic mesh                          
   0.00000000  0.00000000  0.00000000       0.125
   0.25000000  0.00000000  0.00000000       0.125
   0.50000000  0.00000000  0.00000000       0.125
  -0.25000000  0.00000000  0.00000000       0.125
   0.00000000  0.25000000  0.00000000       0.125
   0.25000000  0.25000000  0.00000000       0.125
   0.50000000  0.25000000  0.00000000       0.125
  -0.25000000  0.25000000  0.00000000       0.125
 
 k-points in reciprocal lattice and weights: automatic mesh                          
   0.00000000  0.00000000  0.00000000       0.125
   0.25000000  0.00000000  0.00000000       0.125
   0.50000000  0.00000000  0.00000000       0.125
  -0.25000000  0.00000000  0.00000000       0.125
   0.00000000  0.25000000  0.00000000       0.125
   0.25000000  0.25000000  0.00000000       0.125
   0.50000000  0.25000000  0.00000000       0.125
  -0.25000000  0.25000000  0.00000000       0.125

--------------------------------------------------------------------------------------------------------




--------------------------------------------------------------------------------------------------------


    CHARGE:  cpu time      0.2245: real time      0.2312
    FORLOC:  cpu time      0.0389: real time      0.0401
    FORNL :  cpu time      0.1823: real time      0.1876
    STRESS:  cpu time      0.8734: real time      0.8991
    FORHAR:  cpu time      0.0845: real time      0.0870
    MIXING:  cpu time      0.0123: real time      0.0127
    OFIELD:  cpu time      0.0000: real time      0.0000

  FORCE on cell =-STRESS in cart. coord.  units (eV):
  Direction    XX          YY          ZZ          XY          YZ          ZX
  --------------------------------------------------------------------------------------
   Alpha Z     0.00000     0.00000     0.00000
   Ewald      73.18648    73.18648    73.18648     0.00000     0.00000     0.00000
   Hartree    79.54328    79.54328    79.54328     0.00000     0.00000     0.00000
   E(xc)     -24.89423   -24.89423   -24.89423     0.00000     0.00000     0.00000
   Local    -193.45679  -193.45679  -193.45679     0.00000     0.00000     0.00000
   n-local   -15.82347   -15.82347   -15.82347     0.00000     0.00000     0.00000
   augment     1.52389     1.52389     1.52389     0.00000     0.00000     0.00000
   Kinetic    79.62478    79.62478    79.62478     0.00000     0.00000     0.00000
   Fock        0.00000     0.00000     0.00000     0.00000     0.00000     0.00000
   -------------------------------------------------------------------------------------
   Total      -0.29606    -0.29606    -0.29606     0.00000     0.00000     0.00000
  in kB       -1.14562    -1.14562    -1.14562     0.00000     0.00000     0.00000
 
 
 POSITION                                       TOTAL-FORCE (eV/Angst)
 -----------------------------------------------------------------------------------
      0.00000      0.00000      0.00000         0.000000      0.000000      0.000000
      0.96000      0.96000      0.96000         0.000000      0.000000      0.000000
 -----------------------------------------------------------------------------------
    total drift:                                0.000000      0.000000      0.000000


--------------------------------------------------------------------------------------------------------



  FREE ENERGIE OF THE ION-ELECTRON SYSTEM (eV)
  ---------------------------------------------------
  free  energy   TOTEN  =       -10.85039800 eV

  energy  without entropy=      -10.85039800  energy(sigma->0) =      -10.85039800


--------------------------------------------------------------------------------------------------------


    POTLOK:  cpu time      0.5623: real time      0.5789
    SETDIJ:  cpu time      0.0234: real time      0.0241
    EDDAV :  cpu time      3.9823: real time      4.1012
    BZINTS:  cpu time      0.0001: real time      0.0001
       DOS:  cpu time      0.0234: real time      0.0241
    --------------------------------------------
      LOOP:  cpu time      4.5917: real time      4.7286

 eigenvalue-minimisations  :   576
 total energy-change (2. order) :-0.2389234E-07  (-0.1723456E-07)
 number of electron       8.0000000 magnetization 
 augmentation part        8.0000000 magnetization 

 Free energy of the ion-electron system (eV)
  ---------------------------------------------------
  alpha Z        PSCENC =         1.06944871
  Ewald energy   TEWEN  =       146.37296254
  -Hartree energ DENC   =      -318.62743889
  -exchange      EXHF   =         0.00000000
  -V(xc)+E(xc)   XCENC  =        41.23467821
  PAW double counting   =       634.58812349     -636.28267342
  entropy T*S    EENTRO =         0.00000000
  eigenvalues    EBANDS =      -142.34589122
  atomic energy  EATOM  =       263.14039258
  Solvation  Ediel_sol  =         0.00000000
  ---------------------------------------------------
  free energy    TOTEN  =       -10.85039800 eV

  energy without entropy =      -10.85039800  energy(sigma->0) =      -10.85039800


--------------------------------------------------------------------------------------------------------


 writing wavefunctions

 
 General timing and accounting informations for this job:
 ========================================================
  
                  Total CPU time used (sec):       18.234
                            User time (sec):       16.823
                          System time (sec):        1.411
                         Elapsed time (sec):       19.451
  
                   Maximum memory used (kb):      156784.
                   Average memory used (kb):           0.
  
                          Minor page faults:       108834
                          Major page faults:            0
                 Voluntary context switches:         3421